<?xml version="1.0" encoding="UTF-8"?>

<!-- generated on Wed  4 Jul 10:34:24 2018 by SUMO gui Version 0.32.0
<?xml version="1.0" encoding="UTF-8"?>

<configuration xmlns:xsi="http://www.w3.org/2001/XMLSchema-instance" xsi:noNamespaceSchemaLocation="http://sumo.dlr.de/xsd/sumoConfiguration.xsd">

    <input>
        <net-file value="QLearn/cityNetwork.net.xml"/>
        <route-files value="QLearn/cityNetwork.rou.xml"/>
        <additional-files value="QLearn/cityNetworkAdditional.add.xml"/>
    </input>

    <output>
        <tripinfo-output value="tripinfo.xml"/>
    </output>

    <time>
        <begin value="0"/>
        <end value="3600"/>
    </time>

    <traci_server>
        <remote-port value="56827"/>
    </traci_server>

    <gui_only>
        <gui-settings-file value="QLearn/cityNetwork.settings.xml"/>
    </gui_only>

</configuration>
-->

<tripinfos xmlns:xsi="http://www.w3.org/2001/XMLSchema-instance" xsi:noNamespaceSchemaLocation="http://sumo.dlr.de/xsd/tripinfo_file.xsd">
    <tripinfo id="9" depart="27.00" departLane="148186648#0_0" departPos="5.10" departSpeed="0.00" departDelay="0.00" arrival="51.00" arrivalLane="148186648#2_0" arrivalPos="304.36" arrivalSpeed="27.19" duration="24.00" routeLength="472.89" waitSteps="0" timeLoss="6.66" rerouteNo="0" devices="tripinfo_9" vType="DEFAULT_VEHTYPE" speedFactor="1.00" vaporized=""/>
    <tripinfo id="12" depart="36.00" departLane="-165932_0" departPos="5.10" departSpeed="0.00" departDelay="0.00" arrival="63.00" arrivalLane="-8139879_0" arrivalPos="482.89" arrivalSpeed="27.73" duration="27.00" routeLength="505.43" waitSteps="0" timeLoss="8.07" rerouteNo="0" devices="tripinfo_12" vType="DEFAULT_VEHTYPE" speedFactor="1.00" vaporized=""/>
    <tripinfo id="24" depart="72.00" departLane="4398476#2_0" departPos="5.10" departSpeed="0.00" departDelay="0.00" arrival="99.00" arrivalLane="4953888#0_0" arrivalPos="194.97" arrivalSpeed="22.14" duration="27.00" routeLength="387.51" waitSteps="0" timeLoss="4.93" rerouteNo="0" devices="tripinfo_24" vType="DEFAULT_VEHTYPE" speedFactor="1.00" vaporized=""/>
    <tripinfo id="7" depart="21.00" departLane="-8003373_0" departPos="5.10" departSpeed="0.00" departDelay="0.00" arrival="119.00" arrivalLane="4837135#0_0" arrivalPos="46.51" arrivalSpeed="19.48" duration="98.00" routeLength="1545.44" waitSteps="3" timeLoss="26.01" rerouteNo="0" devices="tripinfo_7" vType="DEFAULT_VEHTYPE" speedFactor="1.00" vaporized=""/>
    <tripinfo id="4" depart="12.00" departLane="147915073#0_0" departPos="5.10" departSpeed="0.00" departDelay="0.00" arrival="124.00" arrivalLane="211482602#0_0" arrivalPos="288.70" arrivalSpeed="27.25" duration="112.00" routeLength="2077.50" waitSteps="0" timeLoss="26.49" rerouteNo="0" devices="tripinfo_4" vType="DEFAULT_VEHTYPE" speedFactor="1.00" vaporized=""/>
    <tripinfo id="27" depart="81.00" departLane="12689656#0_0" departPos="5.10" departSpeed="0.00" departDelay="0.00" arrival="127.00" arrivalLane="148712765#0_0" arrivalPos="351.74" arrivalSpeed="27.07" duration="46.00" routeLength="812.86" waitSteps="0" timeLoss="12.62" rerouteNo="0" devices="tripinfo_27" vType="DEFAULT_VEHTYPE" speedFactor="1.00" vaporized=""/>
    <tripinfo id="2" depart="6.00" departLane="156265421#4_0" departPos="5.10" departSpeed="0.00" departDelay="0.00" arrival="143.00" arrivalLane="43335375#1_0" arrivalPos="20.50" arrivalSpeed="12.18" duration="137.00" routeLength="2456.37" waitSteps="6" timeLoss="38.08" rerouteNo="0" devices="tripinfo_2" vType="DEFAULT_VEHTYPE" speedFactor="1.00" vaporized=""/>
    <tripinfo id="43" depart="129.00" departLane="-148712765#8_0" departPos="5.10" departSpeed="0.00" departDelay="0.00" arrival="150.00" arrivalLane="-148712765#8_0" arrivalPos="353.99" arrivalSpeed="27.46" duration="21.00" routeLength="348.89" waitSteps="0" timeLoss="7.48" rerouteNo="0" devices="tripinfo_43" vType="DEFAULT_VEHTYPE" speedFactor="1.00" vaporized=""/>
    <tripinfo id="22" depart="69.00" departLane="-4310553#3_0" departPos="5.10" departSpeed="0.00" departDelay="3.00" arrival="153.00" arrivalLane="-165956_0" arrivalPos="29.73" arrivalSpeed="12.69" duration="84.00" routeLength="1158.05" waitSteps="1" timeLoss="21.61" rerouteNo="0" devices="tripinfo_22" vType="DEFAULT_VEHTYPE" speedFactor="1.00" vaporized=""/>
    <tripinfo id="37" depart="111.00" departLane="43246588#0_0" departPos="4.43" departSpeed="0.00" departDelay="0.00" arrival="153.00" arrivalLane="23222198_0" arrivalPos="11.37" arrivalSpeed="17.87" duration="42.00" routeLength="709.75" waitSteps="0" timeLoss="9.78" rerouteNo="0" devices="tripinfo_37" vType="DEFAULT_VEHTYPE" speedFactor="1.00" vaporized=""/>
    <tripinfo id="11" depart="33.00" departLane="38685657_0" departPos="5.10" departSpeed="0.00" departDelay="0.00" arrival="156.00" arrivalLane="-13855468#5_0" arrivalPos="365.00" arrivalSpeed="21.44" duration="123.00" routeLength="2258.97" waitSteps="0" timeLoss="24.68" rerouteNo="0" devices="tripinfo_11" vType="DEFAULT_VEHTYPE" speedFactor="1.00" vaporized=""/>
    <tripinfo id="18" depart="54.00" departLane="147915073#0_0" departPos="5.10" departSpeed="0.00" departDelay="0.00" arrival="157.00" arrivalLane="12689656#0_0" arrivalPos="452.47" arrivalSpeed="22.06" duration="103.00" routeLength="1783.47" waitSteps="0" timeLoss="27.97" rerouteNo="0" devices="tripinfo_18" vType="DEFAULT_VEHTYPE" speedFactor="1.00" vaporized=""/>
    <tripinfo id="44" depart="132.00" departLane="23222183#0_0" departPos="5.10" departSpeed="0.00" departDelay="0.00" arrival="175.00" arrivalLane="43246588#3_1" arrivalPos="5.20" arrivalSpeed="14.39" duration="43.00" routeLength="717.79" waitSteps="0" timeLoss="10.59" rerouteNo="0" devices="tripinfo_44" vType="DEFAULT_VEHTYPE" speedFactor="1.00" vaporized=""/>
    <tripinfo id="39" depart="117.00" departLane="-147915073#1_0" departPos="5.10" departSpeed="0.00" departDelay="0.00" arrival="184.00" arrivalLane="187714569#0_0" arrivalPos="315.24" arrivalSpeed="26.71" duration="67.00" routeLength="1050.75" waitSteps="0" timeLoss="11.81" rerouteNo="0" devices="tripinfo_39" vType="DEFAULT_VEHTYPE" speedFactor="1.00" vaporized=""/>
    <tripinfo id="19" depart="57.00" departLane="148186359#0_0" departPos="5.10" departSpeed="0.00" departDelay="0.00" arrival="191.00" arrivalLane="8003381_0" arrivalPos="10.22" arrivalSpeed="19.31" duration="134.00" routeLength="1925.40" waitSteps="0" timeLoss="42.19" rerouteNo="0" devices="tripinfo_19" vType="DEFAULT_VEHTYPE" speedFactor="1.00" vaporized=""/>
    <tripinfo id="50" depart="150.00" departLane="148186648#0_0" departPos="5.10" departSpeed="0.00" departDelay="0.00" arrival="206.00" arrivalLane="--165936_0" arrivalPos="20.94" arrivalSpeed="12.23" duration="56.00" routeLength="1082.03" waitSteps="0" timeLoss="12.47" rerouteNo="0" devices="tripinfo_50" vType="DEFAULT_VEHTYPE" speedFactor="1.00" vaporized=""/>
    <tripinfo id="34" depart="102.00" departLane="-165928#0_0" departPos="5.10" departSpeed="0.00" departDelay="0.00" arrival="207.00" arrivalLane="-8139879_0" arrivalPos="482.89" arrivalSpeed="27.02" duration="105.00" routeLength="2259.27" waitSteps="0" timeLoss="18.95" rerouteNo="0" devices="tripinfo_34" vType="DEFAULT_VEHTYPE" speedFactor="1.00" vaporized=""/>
    <tripinfo id="63" depart="189.00" departLane="187714560_0" departPos="5.10" departSpeed="0.00" departDelay="0.00" arrival="209.00" arrivalLane="-165970_0" arrivalPos="79.14" arrivalSpeed="12.98" duration="20.00" routeLength="202.83" waitSteps="0" timeLoss="5.86" rerouteNo="0" devices="tripinfo_63" vType="DEFAULT_VEHTYPE" speedFactor="1.00" vaporized=""/>
    <tripinfo id="10" depart="30.00" departLane="--165928#2_0" departPos="5.10" departSpeed="0.00" departDelay="0.00" arrival="220.00" arrivalLane="43246587#0_0" arrivalPos="331.46" arrivalSpeed="21.91" duration="190.00" routeLength="3543.17" waitSteps="0" timeLoss="27.58" rerouteNo="0" devices="tripinfo_10" vType="DEFAULT_VEHTYPE" speedFactor="1.00" vaporized=""/>
    <tripinfo id="17" depart="51.00" departLane="43246587#0_0" departPos="5.10" departSpeed="0.00" departDelay="0.00" arrival="222.00" arrivalLane="-249177425#7_0" arrivalPos="328.03" arrivalSpeed="12.38" duration="171.00" routeLength="2086.39" waitSteps="31" timeLoss="51.70" rerouteNo="0" devices="tripinfo_17" vType="DEFAULT_VEHTYPE" speedFactor="1.00" vaporized=""/>
    <tripinfo id="36" depart="108.00" departLane="-165964_0" departPos="5.10" departSpeed="0.00" departDelay="0.00" arrival="228.00" arrivalLane="-148186648#1_0" arrivalPos="156.05" arrivalSpeed="27.35" duration="120.00" routeLength="2031.77" waitSteps="0" timeLoss="21.01" rerouteNo="0" devices="tripinfo_36" vType="DEFAULT_VEHTYPE" speedFactor="1.00" vaporized=""/>
    <tripinfo id="23" depart="69.00" departLane="4415136_0" departPos="5.10" departSpeed="0.00" departDelay="0.00" arrival="242.00" arrivalLane="4310553#4_0" arrivalPos="195.03" arrivalSpeed="16.27" duration="173.00" routeLength="2642.10" waitSteps="0" timeLoss="29.04" rerouteNo="0" devices="tripinfo_23" vType="DEFAULT_VEHTYPE" speedFactor="1.00" vaporized=""/>
    <tripinfo id="59" depart="177.00" departLane="327779913_0" departPos="5.10" departSpeed="0.00" departDelay="0.00" arrival="243.00" arrivalLane="4398476#1_0" arrivalPos="25.29" arrivalSpeed="13.22" duration="66.00" routeLength="1105.10" waitSteps="0" timeLoss="10.72" rerouteNo="0" devices="tripinfo_59" vType="DEFAULT_VEHTYPE" speedFactor="1.00" vaporized=""/>
    <tripinfo id="26" depart="78.00" departLane="-15092428#1_0" departPos="5.10" departSpeed="0.00" departDelay="0.00" arrival="249.00" arrivalLane="-43285401#1_0" arrivalPos="429.30" arrivalSpeed="21.75" duration="171.00" routeLength="3194.98" waitSteps="2" timeLoss="41.41" rerouteNo="0" devices="tripinfo_26" vType="DEFAULT_VEHTYPE" speedFactor="1.00" vaporized=""/>
    <tripinfo id="29" depart="87.00" departLane="-187714569#8_0" departPos="5.10" departSpeed="0.00" departDelay="0.00" arrival="252.00" arrivalLane="327779914_0" arrivalPos="13.00" arrivalSpeed="16.72" duration="165.00" routeLength="2650.60" waitSteps="1" timeLoss="53.20" rerouteNo="0" devices="tripinfo_29" vType="DEFAULT_VEHTYPE" speedFactor="1.00" vaporized=""/>
    <tripinfo id="54" depart="162.00" departLane="8003382#0_0" departPos="5.10" departSpeed="0.00" departDelay="0.00" arrival="253.00" arrivalLane="4398476#4_1" arrivalPos="33.85" arrivalSpeed="13.39" duration="91.00" routeLength="1487.16" waitSteps="0" timeLoss="19.18" rerouteNo="0" devices="tripinfo_54" vType="DEFAULT_VEHTYPE" speedFactor="1.00" vaporized=""/>
    <tripinfo id="40" depart="120.00" departLane="-43285401#1_0" departPos="5.10" departSpeed="0.00" departDelay="0.00" arrival="253.00" arrivalLane="4953884_0" arrivalPos="428.30" arrivalSpeed="20.98" duration="133.00" routeLength="2299.75" waitSteps="0" timeLoss="24.96" rerouteNo="0" devices="tripinfo_40" vType="DEFAULT_VEHTYPE" speedFactor="1.00" vaporized=""/>
    <tripinfo id="5" depart="15.00" departLane="-13855736#9_0" departPos="5.10" departSpeed="0.00" departDelay="0.00" arrival="255.00" arrivalLane="-4310553#6_0" arrivalPos="195.43" arrivalSpeed="26.57" duration="240.00" routeLength="2067.61" waitSteps="123" timeLoss="159.29" rerouteNo="0" devices="tripinfo_5" vType="DEFAULT_VEHTYPE" speedFactor="1.00" vaporized=""/>
    <tripinfo id="56" depart="168.00" departLane="-43341566#2_0" departPos="5.10" departSpeed="0.00" departDelay="0.00" arrival="257.00" arrivalLane="4415135_0" arrivalPos="17.47" arrivalSpeed="13.14" duration="89.00" routeLength="1726.55" waitSteps="0" timeLoss="18.39" rerouteNo="0" devices="tripinfo_56" vType="DEFAULT_VEHTYPE" speedFactor="1.00" vaporized=""/>
    <tripinfo id="20" depart="60.00" departLane="-165928#0_0" departPos="5.10" departSpeed="0.00" departDelay="0.00" arrival="259.00" arrivalLane="-16224187#4_0" arrivalPos="550.85" arrivalSpeed="21.53" duration="199.00" routeLength="3829.30" waitSteps="0" timeLoss="44.33" rerouteNo="0" devices="tripinfo_20" vType="DEFAULT_VEHTYPE" speedFactor="1.00" vaporized=""/>
    <tripinfo id="3" depart="9.00" departLane="4415178#0_0" departPos="5.10" departSpeed="0.00" departDelay="0.00" arrival="261.00" arrivalLane="148712765#0_0" arrivalPos="351.74" arrivalSpeed="27.49" duration="252.00" routeLength="2345.71" waitSteps="100" timeLoss="133.47" rerouteNo="0" devices="tripinfo_3" vType="DEFAULT_VEHTYPE" speedFactor="1.00" vaporized=""/>
    <tripinfo id="55" depart="165.00" departLane="-4415136_0" departPos="5.10" departSpeed="0.00" departDelay="0.00" arrival="265.00" arrivalLane="43858421_0" arrivalPos="40.28" arrivalSpeed="12.71" duration="100.00" routeLength="1959.61" waitSteps="0" timeLoss="15.72" rerouteNo="0" devices="tripinfo_55" vType="DEFAULT_VEHTYPE" speedFactor="1.00" vaporized=""/>
    <tripinfo id="77" depart="231.00" departLane="-166006_0" departPos="5.10" departSpeed="0.00" departDelay="0.00" arrival="281.00" arrivalLane="-148608635#3_0" arrivalPos="361.44" arrivalSpeed="27.36" duration="50.00" routeLength="1015.78" waitSteps="0" timeLoss="12.22" rerouteNo="0" devices="tripinfo_77" vType="DEFAULT_VEHTYPE" speedFactor="1.00" vaporized=""/>
    <tripinfo id="84" depart="252.00" departLane="4953888#0_0" departPos="5.10" departSpeed="0.00" departDelay="0.00" arrival="282.00" arrivalLane="43246587#0_0" arrivalPos="331.46" arrivalSpeed="21.04" duration="30.00" routeLength="521.64" waitSteps="0" timeLoss="6.18" rerouteNo="0" devices="tripinfo_84" vType="DEFAULT_VEHTYPE" speedFactor="1.00" vaporized=""/>
    <tripinfo id="13" depart="39.00" departLane="156265421#0_0" departPos="5.10" departSpeed="0.00" departDelay="0.00" arrival="289.00" arrivalLane="166170572#0_0" arrivalPos="264.38" arrivalSpeed="27.56" duration="250.00" routeLength="1901.27" waitSteps="153" timeLoss="176.50" rerouteNo="0" devices="tripinfo_13" vType="DEFAULT_VEHTYPE" speedFactor="1.00" vaporized=""/>
    <tripinfo id="68" depart="204.00" departLane="23222196#0_0" departPos="5.10" departSpeed="0.00" departDelay="0.00" arrival="291.00" arrivalLane="4953885#0_0" arrivalPos="129.33" arrivalSpeed="12.14" duration="87.00" routeLength="1482.00" waitSteps="0" timeLoss="17.67" rerouteNo="0" devices="tripinfo_68" vType="DEFAULT_VEHTYPE" speedFactor="1.00" vaporized=""/>
    <tripinfo id="70" depart="210.00" departLane="-147915073#4_0" departPos="5.10" departSpeed="0.00" departDelay="0.00" arrival="296.00" arrivalLane="23222183#4_0" arrivalPos="4.56" arrivalSpeed="18.91" duration="86.00" routeLength="1552.33" waitSteps="0" timeLoss="22.99" rerouteNo="0" devices="tripinfo_70" vType="DEFAULT_VEHTYPE" speedFactor="1.00" vaporized=""/>
    <tripinfo id="83" depart="249.00" departLane="-165986_0" departPos="5.10" departSpeed="0.00" departDelay="0.00" arrival="302.00" arrivalLane="-147915073#4_0" arrivalPos="96.87" arrivalSpeed="20.76" duration="53.00" routeLength="795.63" waitSteps="0" timeLoss="12.25" rerouteNo="0" devices="tripinfo_83" vType="DEFAULT_VEHTYPE" speedFactor="1.00" vaporized=""/>
    <tripinfo id="76" depart="228.00" departLane="4415174_0" departPos="5.10" departSpeed="0.00" departDelay="0.00" arrival="303.00" arrivalLane="43341566#0_0" arrivalPos="321.50" arrivalSpeed="21.67" duration="75.00" routeLength="1199.43" waitSteps="0" timeLoss="13.67" rerouteNo="0" devices="tripinfo_76" vType="DEFAULT_VEHTYPE" speedFactor="1.00" vaporized=""/>
    <tripinfo id="69" depart="210.00" departLane="23222196#0_0" departPos="5.10" departSpeed="0.00" departDelay="3.00" arrival="315.00" arrivalLane="4310553#4_0" arrivalPos="195.03" arrivalSpeed="27.24" duration="105.00" routeLength="1617.85" waitSteps="0" timeLoss="29.93" rerouteNo="0" devices="tripinfo_69" vType="DEFAULT_VEHTYPE" speedFactor="1.00" vaporized=""/>
    <tripinfo id="62" depart="192.00" departLane="43246588#1_0" departPos="5.10" departSpeed="0.00" departDelay="6.00" arrival="315.00" arrivalLane="94197110#0_0" arrivalPos="148.34" arrivalSpeed="22.05" duration="123.00" routeLength="2156.06" waitSteps="6" timeLoss="26.44" rerouteNo="0" devices="tripinfo_62" vType="DEFAULT_VEHTYPE" speedFactor="1.00" vaporized=""/>
    <tripinfo id="6" depart="18.00" departLane="-165988_0" departPos="5.10" departSpeed="0.00" departDelay="0.00" arrival="317.00" arrivalLane="8003370#1_0" arrivalPos="411.96" arrivalSpeed="7.62" duration="299.00" routeLength="1947.09" waitSteps="158" timeLoss="176.21" rerouteNo="0" devices="tripinfo_6" vType="DEFAULT_VEHTYPE" speedFactor="1.00" vaporized=""/>
    <tripinfo id="73" depart="219.00" departLane="-4497579#1_0" departPos="5.10" departSpeed="0.00" departDelay="0.00" arrival="318.00" arrivalLane="-165928#0_0" arrivalPos="123.22" arrivalSpeed="27.25" duration="99.00" routeLength="1860.58" waitSteps="3" timeLoss="26.54" rerouteNo="0" devices="tripinfo_73" vType="DEFAULT_VEHTYPE" speedFactor="1.00" vaporized=""/>
    <tripinfo id="64" depart="192.00" departLane="23646350_0" departPos="5.10" departSpeed="0.00" departDelay="0.00" arrival="322.00" arrivalLane="-165966_0" arrivalPos="50.67" arrivalSpeed="12.41" duration="130.00" routeLength="1992.19" waitSteps="10" timeLoss="36.28" rerouteNo="0" devices="tripinfo_64" vType="DEFAULT_VEHTYPE" speedFactor="1.00" vaporized=""/>
    <tripinfo id="14" depart="42.00" departLane="4415177#1_0" departPos="1.52" departSpeed="0.00" departDelay="0.00" arrival="325.00" arrivalLane="-165920_0" arrivalPos="117.49" arrivalSpeed="26.70" duration="283.00" routeLength="1973.00" waitSteps="172" timeLoss="203.79" rerouteNo="0" devices="tripinfo_14" vType="DEFAULT_VEHTYPE" speedFactor="1.00" vaporized=""/>
    <tripinfo id="86" depart="258.00" departLane="43335375#0_0" departPos="5.10" departSpeed="0.00" departDelay="0.00" arrival="330.00" arrivalLane="8003373_0" arrivalPos="34.41" arrivalSpeed="21.09" duration="72.00" routeLength="1369.01" waitSteps="0" timeLoss="14.08" rerouteNo="0" devices="tripinfo_86" vType="DEFAULT_VEHTYPE" speedFactor="1.00" vaporized=""/>
    <tripinfo id="75" depart="225.00" departLane="23217665_0" departPos="0.20" departSpeed="0.00" departDelay="0.00" arrival="331.00" arrivalLane="237973107#2_0" arrivalPos="44.62" arrivalSpeed="21.52" duration="106.00" routeLength="1992.15" waitSteps="0" timeLoss="16.17" rerouteNo="0" devices="tripinfo_75" vType="DEFAULT_VEHTYPE" speedFactor="1.00" vaporized=""/>
    <tripinfo id="35" depart="105.00" departLane="-15543302#8_0" departPos="5.10" departSpeed="0.00" departDelay="0.00" arrival="331.00" arrivalLane="-43285401#1_0" arrivalPos="429.30" arrivalSpeed="21.70" duration="226.00" routeLength="2975.85" waitSteps="45" timeLoss="88.39" rerouteNo="0" devices="tripinfo_35" vType="DEFAULT_VEHTYPE" speedFactor="1.00" vaporized=""/>
    <tripinfo id="88" depart="264.00" departLane="23222183#2_0" departPos="5.10" departSpeed="0.00" departDelay="0.00" arrival="333.00" arrivalLane="16224187#0_0" arrivalPos="550.04" arrivalSpeed="21.82" duration="69.00" routeLength="1267.40" waitSteps="0" timeLoss="12.32" rerouteNo="0" devices="tripinfo_88" vType="DEFAULT_VEHTYPE" speedFactor="1.00" vaporized=""/>
    <tripinfo id="96" depart="288.00" departLane="-13855468#5_0" departPos="5.10" departSpeed="0.00" departDelay="0.00" arrival="334.00" arrivalLane="43335369_0" arrivalPos="26.40" arrivalSpeed="13.14" duration="46.00" routeLength="706.12" waitSteps="0" timeLoss="13.03" rerouteNo="0" devices="tripinfo_96" vType="DEFAULT_VEHTYPE" speedFactor="1.00" vaporized=""/>
    <tripinfo id="87" depart="261.00" departLane="4399600#2_0" departPos="5.10" departSpeed="0.00" departDelay="0.00" arrival="337.00" arrivalLane="-43341566#2_0" arrivalPos="321.48" arrivalSpeed="21.58" duration="76.00" routeLength="1498.50" waitSteps="0" timeLoss="12.59" rerouteNo="0" devices="tripinfo_87" vType="DEFAULT_VEHTYPE" speedFactor="1.00" vaporized=""/>
    <tripinfo id="60" depart="181.00" departLane="-13855468#5_0" departPos="5.10" departSpeed="0.00" departDelay="1.00" arrival="342.00" arrivalLane="-327779914_0" arrivalPos="13.00" arrivalSpeed="22.15" duration="161.00" routeLength="2875.07" waitSteps="0" timeLoss="37.66" rerouteNo="0" devices="tripinfo_60" vType="DEFAULT_VEHTYPE" speedFactor="1.00" vaporized=""/>
    <tripinfo id="81" depart="243.00" departLane="--165928#2_0" departPos="5.10" departSpeed="0.00" departDelay="0.00" arrival="344.00" arrivalLane="-165920_0" arrivalPos="117.49" arrivalSpeed="26.50" duration="101.00" routeLength="2119.92" waitSteps="0" timeLoss="15.52" rerouteNo="0" devices="tripinfo_81" vType="DEFAULT_VEHTYPE" speedFactor="1.00" vaporized=""/>
    <tripinfo id="79" depart="237.00" departLane="43335375#1_0" departPos="5.10" departSpeed="0.00" departDelay="0.00" arrival="349.00" arrivalLane="23222183#1_0" arrivalPos="4.68" arrivalSpeed="10.40" duration="112.00" routeLength="2024.15" waitSteps="0" timeLoss="28.82" rerouteNo="0" devices="tripinfo_79" vType="DEFAULT_VEHTYPE" speedFactor="1.00" vaporized=""/>
    <tripinfo id="94" depart="282.00" departLane="4399600#2_0" departPos="5.10" departSpeed="0.00" departDelay="0.00" arrival="364.00" arrivalLane="4415136_0" arrivalPos="299.75" arrivalSpeed="26.58" duration="82.00" routeLength="1747.54" waitSteps="0" timeLoss="14.66" rerouteNo="0" devices="tripinfo_94" vType="DEFAULT_VEHTYPE" speedFactor="1.00" vaporized=""/>
    <tripinfo id="104" depart="312.00" departLane="4953885#0_0" departPos="5.10" departSpeed="0.00" departDelay="0.00" arrival="375.00" arrivalLane="23222183#1_0" arrivalPos="4.68" arrivalSpeed="12.09" duration="63.00" routeLength="933.13" waitSteps="0" timeLoss="17.43" rerouteNo="0" devices="tripinfo_104" vType="DEFAULT_VEHTYPE" speedFactor="1.00" vaporized=""/>
    <tripinfo id="58" depart="174.00" departLane="-148712765#8_0" departPos="5.10" departSpeed="0.00" departDelay="0.00" arrival="387.00" arrivalLane="39970196_0" arrivalPos="266.91" arrivalSpeed="21.04" duration="213.00" routeLength="3921.99" waitSteps="0" timeLoss="47.88" rerouteNo="0" devices="tripinfo_58" vType="DEFAULT_VEHTYPE" speedFactor="1.00" vaporized=""/>
    <tripinfo id="41" depart="125.00" departLane="4415136_0" departPos="5.10" departSpeed="0.00" departDelay="2.00" arrival="394.00" arrivalLane="43246587#0_0" arrivalPos="331.46" arrivalSpeed="21.68" duration="269.00" routeLength="3840.24" waitSteps="0" timeLoss="36.59" rerouteNo="0" devices="tripinfo_41" vType="DEFAULT_VEHTYPE" speedFactor="1.00" vaporized=""/>
    <tripinfo id="90" depart="270.00" departLane="4953888#0_0" departPos="5.10" departSpeed="0.00" departDelay="0.00" arrival="400.00" arrivalLane="23646350_0" arrivalPos="31.64" arrivalSpeed="21.80" duration="130.00" routeLength="2421.32" waitSteps="0" timeLoss="20.63" rerouteNo="0" devices="tripinfo_90" vType="DEFAULT_VEHTYPE" speedFactor="1.00" vaporized=""/>
    <tripinfo id="117" depart="351.00" departLane="38685674_0" departPos="5.10" departSpeed="0.00" departDelay="0.00" arrival="409.00" arrivalLane="-12689656#3_0" arrivalPos="450.45" arrivalSpeed="21.51" duration="58.00" routeLength="1066.35" waitSteps="0" timeLoss="9.37" rerouteNo="0" devices="tripinfo_117" vType="DEFAULT_VEHTYPE" speedFactor="1.00" vaporized=""/>
    <tripinfo id="102" depart="306.00" departLane="43335375#0_0" departPos="5.10" departSpeed="0.00" departDelay="0.00" arrival="415.00" arrivalLane="23222184_0" arrivalPos="12.82" arrivalSpeed="22.02" duration="109.00" routeLength="2056.51" waitSteps="0" timeLoss="22.65" rerouteNo="0" devices="tripinfo_102" vType="DEFAULT_VEHTYPE" speedFactor="1.00" vaporized=""/>
    <tripinfo id="115" depart="345.00" departLane="-147915073#4_0" departPos="5.10" departSpeed="0.00" departDelay="0.00" arrival="424.00" arrivalLane="-148712765#8_0" arrivalPos="353.99" arrivalSpeed="26.92" duration="79.00" routeLength="1127.20" waitSteps="2" timeLoss="19.27" rerouteNo="0" devices="tripinfo_115" vType="DEFAULT_VEHTYPE" speedFactor="1.00" vaporized=""/>
    <tripinfo id="113" depart="339.00" departLane="-211482602#2_0" departPos="5.10" departSpeed="0.00" departDelay="0.00" arrival="427.00" arrivalLane="-165928#0_0" arrivalPos="123.22" arrivalSpeed="27.38" duration="88.00" routeLength="1911.66" waitSteps="0" timeLoss="14.86" rerouteNo="0" devices="tripinfo_113" vType="DEFAULT_VEHTYPE" speedFactor="1.00" vaporized=""/>
    <tripinfo id="1" depart="3.00" departLane="16224187#0_0" departPos="5.10" departSpeed="0.00" departDelay="0.00" arrival="432.00" arrivalLane="-165956_0" arrivalPos="29.73" arrivalSpeed="12.94" duration="429.00" routeLength="2718.13" waitSteps="272" timeLoss="298.94" rerouteNo="0" devices="tripinfo_1" vType="DEFAULT_VEHTYPE" speedFactor="1.00" vaporized=""/>
    <tripinfo id="8" depart="24.00" departLane="-152342551#2_0" departPos="5.10" departSpeed="0.00" departDelay="0.00" arrival="433.00" arrivalLane="4415136_0" arrivalPos="299.75" arrivalSpeed="26.65" duration="409.00" routeLength="2109.44" waitSteps="294" timeLoss="325.99" rerouteNo="0" devices="tripinfo_8" vType="DEFAULT_VEHTYPE" speedFactor="1.00" vaporized=""/>
    <tripinfo id="134" depart="402.00" departLane="4398476#4_0" departPos="5.10" departSpeed="0.00" departDelay="0.00" arrival="438.00" arrivalLane="23646350_0" arrivalPos="31.64" arrivalSpeed="21.37" duration="36.00" routeLength="630.84" waitSteps="0" timeLoss="4.86" rerouteNo="0" devices="tripinfo_134" vType="DEFAULT_VEHTYPE" speedFactor="1.00" vaporized=""/>
    <tripinfo id="67" depart="201.00" departLane="43858423_0" departPos="5.10" departSpeed="0.00" departDelay="0.00" arrival="447.00" arrivalLane="15092435#0_0" arrivalPos="1332.08" arrivalSpeed="21.03" duration="246.00" routeLength="2612.94" waitSteps="73" timeLoss="90.99" rerouteNo="0" devices="tripinfo_67" vType="DEFAULT_VEHTYPE" speedFactor="1.00" vaporized=""/>
    <tripinfo id="25" depart="75.00" departLane="-152342551#2_0" departPos="5.10" departSpeed="0.00" departDelay="0.00" arrival="455.00" arrivalLane="-165932_0" arrivalPos="25.90" arrivalSpeed="26.86" duration="380.00" routeLength="665.06" waitSteps="325" timeLoss="349.11" rerouteNo="0" devices="tripinfo_25" vType="DEFAULT_VEHTYPE" speedFactor="1.00" vaporized=""/>
    <tripinfo id="131" depart="393.00" departLane="4415177#1_0" departPos="1.52" departSpeed="0.00" departDelay="0.00" arrival="456.00" arrivalLane="-165960_0" arrivalPos="77.64" arrivalSpeed="12.94" duration="63.00" routeLength="302.95" waitSteps="30" timeLoss="39.82" rerouteNo="0" devices="tripinfo_131" vType="DEFAULT_VEHTYPE" speedFactor="1.00" vaporized=""/>
    <tripinfo id="95" depart="285.00" departLane="-211482602#2_0" departPos="5.10" departSpeed="0.00" departDelay="0.00" arrival="457.00" arrivalLane="-43246587#6_0" arrivalPos="324.65" arrivalSpeed="21.47" duration="172.00" routeLength="3314.78" waitSteps="0" timeLoss="34.39" rerouteNo="0" devices="tripinfo_95" vType="DEFAULT_VEHTYPE" speedFactor="1.00" vaporized=""/>
    <tripinfo id="124" depart="372.00" departLane="-148608635#6_0" departPos="5.10" departSpeed="0.00" departDelay="0.00" arrival="463.00" arrivalLane="-189049904#4_0" arrivalPos="352.33" arrivalSpeed="21.40" duration="91.00" routeLength="1512.42" waitSteps="0" timeLoss="14.28" rerouteNo="0" devices="tripinfo_124" vType="DEFAULT_VEHTYPE" speedFactor="1.00" vaporized=""/>
    <tripinfo id="139" depart="417.00" departLane="43335375#1_0" departPos="5.10" departSpeed="0.00" departDelay="0.00" arrival="483.00" arrivalLane="-43341566#2_0" arrivalPos="321.48" arrivalSpeed="21.01" duration="66.00" routeLength="1263.03" waitSteps="0" timeLoss="9.99" rerouteNo="0" devices="tripinfo_139" vType="DEFAULT_VEHTYPE" speedFactor="1.00" vaporized=""/>
    <tripinfo id="42" depart="126.00" departLane="4398476#4_0" departPos="5.10" departSpeed="0.00" departDelay="0.00" arrival="486.00" arrivalLane="13855468#0_0" arrivalPos="367.60" arrivalSpeed="21.10" duration="360.00" routeLength="2206.41" waitSteps="220" timeLoss="263.86" rerouteNo="0" devices="tripinfo_42" vType="DEFAULT_VEHTYPE" speedFactor="1.00" vaporized=""/>
    <tripinfo id="146" depart="438.00" departLane="--165920_0" departPos="5.10" departSpeed="0.00" departDelay="0.00" arrival="488.00" arrivalLane="187714560_0" arrivalPos="46.92" arrivalSpeed="27.22" duration="50.00" routeLength="1177.77" waitSteps="0" timeLoss="7.10" rerouteNo="0" devices="tripinfo_146" vType="DEFAULT_VEHTYPE" speedFactor="1.00" vaporized=""/>
    <tripinfo id="15" depart="45.00" departLane="4950603#2_0" departPos="5.10" departSpeed="0.00" departDelay="0.00" arrival="496.00" arrivalLane="237973107#3_0" arrivalPos="979.13" arrivalSpeed="22.05" duration="451.00" routeLength="4550.33" waitSteps="196" timeLoss="233.66" rerouteNo="0" devices="tripinfo_15" vType="DEFAULT_VEHTYPE" speedFactor="1.00" vaporized=""/>
    <tripinfo id="0" depart="0.00" departLane="237973104_0" departPos="5.10" departSpeed="0.00" departDelay="0.00" arrival="501.00" arrivalLane="-13855736#9_0" arrivalPos="626.13" arrivalSpeed="6.05" duration="501.00" routeLength="3289.60" waitSteps="308" timeLoss="363.76" rerouteNo="0" devices="tripinfo_0" vType="DEFAULT_VEHTYPE" speedFactor="1.00" vaporized=""/>
    <tripinfo id="47" depart="141.00" departLane="54377173_0" departPos="0.20" departSpeed="0.00" departDelay="0.00" arrival="508.00" arrivalLane="148186651_0" arrivalPos="25.75" arrivalSpeed="12.25" duration="367.00" routeLength="1385.19" waitSteps="271" timeLoss="297.33" rerouteNo="0" devices="tripinfo_47" vType="DEFAULT_VEHTYPE" speedFactor="1.00" vaporized=""/>
    <tripinfo id="135" depart="405.00" departLane="15092433#0_0" departPos="5.10" departSpeed="0.00" departDelay="0.00" arrival="511.00" arrivalLane="43246588#3_1" arrivalPos="5.20" arrivalSpeed="15.21" duration="106.00" routeLength="1773.23" waitSteps="0" timeLoss="21.89" rerouteNo="0" devices="tripinfo_135" vType="DEFAULT_VEHTYPE" speedFactor="1.00" vaporized=""/>
    <tripinfo id="150" depart="450.00" departLane="38685674_0" departPos="5.10" departSpeed="0.00" departDelay="0.00" arrival="521.00" arrivalLane="-165920_0" arrivalPos="117.49" arrivalSpeed="27.44" duration="71.00" routeLength="1380.76" waitSteps="4" timeLoss="16.55" rerouteNo="0" devices="tripinfo_150" vType="DEFAULT_VEHTYPE" speedFactor="1.00" vaporized=""/>