<?xml version="1.0" encoding="UTF-8"?>

<!-- generated on Wed  8 Aug 16:39:50 2018 by SUMO gui Version 0.32.0
<?xml version="1.0" encoding="UTF-8"?>

<configuration xmlns:xsi="http://www.w3.org/2001/XMLSchema-instance" xsi:noNamespaceSchemaLocation="http://sumo.dlr.de/xsd/sumoConfiguration.xsd">

    <input>
        <net-file value="/Users/acabrejasegea/sumo-0.32/Data/Networks/cross_straight_random/cross_straight_random.net.xml"/>
        <route-files value="/Users/acabrejasegea/sumo-0.32/Data/Networks/cross_straight_random/cross_straight_random.trips.xml"/>
        <additional-files value="/Users/acabrejasegea/sumo-0.32/Data/Networks/cross_straight_random/cross_straight_random.add.xml"/>
    </input>

    <output>
        <tripinfo-output value="BasicQ_cross_straight_random_out/tripinfo.xml"/>
    </output>

    <time>
        <begin value="0"/>
    </time>

    <report>
        <verbose value="true"/>
        <no-step-log value="true"/>
    </report>

    <traci_server>
        <remote-port value="49898"/>
    </traci_server>

</configuration>
-->

<tripinfos xmlns:xsi="http://www.w3.org/2001/XMLSchema-instance" xsi:noNamespaceSchemaLocation="http://sumo.dlr.de/xsd/tripinfo_file.xsd">
    <tripinfo id="1" depart="1.00" departLane="-gneE1_0" departPos="5.10" departSpeed="0.00" departDelay="0.00" arrival="80.00" arrivalLane="-gneE0_0" arrivalPos="495.25" arrivalSpeed="13.15" duration="79.00" routeLength="994.90" waitSteps="0" timeLoss="6.87" rerouteNo="0" devices="tripinfo_1" vType="DEFAULT_VEHTYPE" speedFactor="1.00" vaporized=""/>
    <tripinfo id="11" depart="11.00" departLane="gneE0_0" departPos="5.10" departSpeed="0.00" departDelay="0.00" arrival="90.00" arrivalLane="gneE1_0" arrivalPos="495.25" arrivalSpeed="13.74" duration="79.00" routeLength="994.90" waitSteps="0" timeLoss="6.46" rerouteNo="0" devices="tripinfo_11" vType="DEFAULT_VEHTYPE" speedFactor="1.00" vaporized=""/>
    <tripinfo id="29" depart="29.00" departLane="gneE0_0" departPos="5.10" departSpeed="0.00" departDelay="0.00" arrival="108.00" arrivalLane="gneE1_0" arrivalPos="495.25" arrivalSpeed="13.84" duration="79.00" routeLength="994.90" waitSteps="0" timeLoss="6.61" rerouteNo="0" devices="tripinfo_29" vType="DEFAULT_VEHTYPE" speedFactor="1.00" vaporized=""/>
    <tripinfo id="32" depart="32.00" departLane="gneE0_0" departPos="5.10" departSpeed="0.00" departDelay="0.00" arrival="110.00" arrivalLane="gneE1_0" arrivalPos="495.25" arrivalSpeed="13.19" duration="78.00" routeLength="994.90" waitSteps="0" timeLoss="5.69" rerouteNo="0" devices="tripinfo_32" vType="DEFAULT_VEHTYPE" speedFactor="1.00" vaporized=""/>
    <tripinfo id="37" depart="37.00" departLane="gneE0_0" departPos="5.10" departSpeed="0.00" departDelay="0.00" arrival="115.00" arrivalLane="gneE1_0" arrivalPos="495.25" arrivalSpeed="12.63" duration="78.00" routeLength="994.90" waitSteps="0" timeLoss="6.20" rerouteNo="0" devices="tripinfo_37" vType="DEFAULT_VEHTYPE" speedFactor="1.00" vaporized=""/>
    <tripinfo id="9" depart="9.00" departLane="gneE2_0" departPos="5.10" departSpeed="0.00" departDelay="0.00" arrival="131.00" arrivalLane="gneE3_0" arrivalPos="495.25" arrivalSpeed="13.80" duration="122.00" routeLength="994.90" waitSteps="38" timeLoss="49.65" rerouteNo="0" devices="tripinfo_9" vType="DEFAULT_VEHTYPE" speedFactor="1.00" vaporized=""/>
    <tripinfo id="12" depart="12.00" departLane="-gneE3_0" departPos="5.10" departSpeed="0.00" departDelay="0.00" arrival="131.00" arrivalLane="-gneE2_0" arrivalPos="495.25" arrivalSpeed="13.78" duration="119.00" routeLength="994.90" waitSteps="36" timeLoss="46.66" rerouteNo="0" devices="tripinfo_12" vType="DEFAULT_VEHTYPE" speedFactor="1.00" vaporized=""/>
    <tripinfo id="30" depart="30.00" departLane="gneE2_0" departPos="5.10" departSpeed="0.00" departDelay="0.00" arrival="133.00" arrivalLane="gneE3_0" arrivalPos="495.25" arrivalSpeed="13.80" duration="103.00" routeLength="994.90" waitSteps="18" timeLoss="30.64" rerouteNo="0" devices="tripinfo_30" vType="DEFAULT_VEHTYPE" speedFactor="1.00" vaporized=""/>
    <tripinfo id="14" depart="15.00" departLane="-gneE3_0" departPos="5.10" departSpeed="0.00" departDelay="1.00" arrival="133.00" arrivalLane="-gneE2_0" arrivalPos="495.25" arrivalSpeed="13.07" duration="118.00" routeLength="994.90" waitSteps="32" timeLoss="45.87" rerouteNo="0" devices="tripinfo_14" vType="DEFAULT_VEHTYPE" speedFactor="1.00" vaporized=""/>
    <tripinfo id="39" depart="39.00" departLane="gneE2_0" departPos="5.10" departSpeed="0.00" departDelay="0.00" arrival="135.00" arrivalLane="gneE3_0" arrivalPos="495.25" arrivalSpeed="12.93" duration="96.00" routeLength="994.90" waitSteps="10" timeLoss="23.71" rerouteNo="0" devices="tripinfo_39" vType="DEFAULT_VEHTYPE" speedFactor="1.00" vaporized=""/>
    <tripinfo id="19" depart="19.00" departLane="-gneE3_0" departPos="5.10" departSpeed="0.00" departDelay="0.00" arrival="135.00" arrivalLane="-gneE2_0" arrivalPos="495.25" arrivalSpeed="13.16" duration="116.00" routeLength="994.90" waitSteps="30" timeLoss="43.84" rerouteNo="0" devices="tripinfo_19" vType="DEFAULT_VEHTYPE" speedFactor="1.00" vaporized=""/>
    <tripinfo id="22" depart="22.00" departLane="-gneE3_0" departPos="5.10" departSpeed="0.00" departDelay="0.00" arrival="137.00" arrivalLane="-gneE2_0" arrivalPos="495.25" arrivalSpeed="13.79" duration="115.00" routeLength="994.90" waitSteps="28" timeLoss="42.50" rerouteNo="0" devices="tripinfo_22" vType="DEFAULT_VEHTYPE" speedFactor="1.00" vaporized=""/>
    <tripinfo id="28" depart="28.00" departLane="-gneE3_0" departPos="5.10" departSpeed="0.00" departDelay="0.00" arrival="139.00" arrivalLane="-gneE2_0" arrivalPos="495.25" arrivalSpeed="13.86" duration="111.00" routeLength="994.90" waitSteps="25" timeLoss="38.42" rerouteNo="0" devices="tripinfo_28" vType="DEFAULT_VEHTYPE" speedFactor="1.00" vaporized=""/>
    <tripinfo id="34" depart="34.00" departLane="-gneE3_0" departPos="5.10" departSpeed="0.00" departDelay="0.00" arrival="140.00" arrivalLane="-gneE2_0" arrivalPos="495.25" arrivalSpeed="13.36" duration="106.00" routeLength="994.90" waitSteps="20" timeLoss="34.13" rerouteNo="0" devices="tripinfo_34" vType="DEFAULT_VEHTYPE" speedFactor="1.00" vaporized=""/>
    <tripinfo id="47" depart="47.00" departLane="gneE0_0" departPos="5.10" departSpeed="0.00" departDelay="0.00" arrival="147.00" arrivalLane="gneE1_0" arrivalPos="495.25" arrivalSpeed="13.19" duration="100.00" routeLength="994.90" waitSteps="16" timeLoss="28.02" rerouteNo="0" devices="tripinfo_47" vType="DEFAULT_VEHTYPE" speedFactor="1.00" vaporized=""/>
    <tripinfo id="51" depart="51.00" departLane="-gneE1_0" departPos="5.10" departSpeed="0.00" departDelay="0.00" arrival="148.00" arrivalLane="-gneE0_0" arrivalPos="495.25" arrivalSpeed="13.18" duration="97.00" routeLength="994.90" waitSteps="12" timeLoss="24.93" rerouteNo="0" devices="tripinfo_51" vType="DEFAULT_VEHTYPE" speedFactor="1.00" vaporized=""/>
    <tripinfo id="63" depart="63.00" departLane="gneE0_0" departPos="5.10" departSpeed="0.00" departDelay="0.00" arrival="149.00" arrivalLane="gneE1_0" arrivalPos="495.25" arrivalSpeed="13.66" duration="86.00" routeLength="994.90" waitSteps="3" timeLoss="13.93" rerouteNo="0" devices="tripinfo_63" vType="DEFAULT_VEHTYPE" speedFactor="1.00" vaporized=""/>
    <tripinfo id="66" depart="66.00" departLane="gneE0_0" departPos="5.10" departSpeed="0.00" departDelay="0.00" arrival="151.00" arrivalLane="gneE1_0" arrivalPos="495.25" arrivalSpeed="13.42" duration="85.00" routeLength="994.90" waitSteps="0" timeLoss="12.77" rerouteNo="0" devices="tripinfo_66" vType="DEFAULT_VEHTYPE" speedFactor="1.00" vaporized=""/>
    <tripinfo id="70" depart="70.00" departLane="gneE0_0" departPos="5.10" departSpeed="0.00" departDelay="0.00" arrival="153.00" arrivalLane="gneE1_0" arrivalPos="495.25" arrivalSpeed="12.67" duration="83.00" routeLength="994.90" waitSteps="0" timeLoss="10.67" rerouteNo="0" devices="tripinfo_70" vType="DEFAULT_VEHTYPE" speedFactor="1.00" vaporized=""/>
    <tripinfo id="75" depart="75.00" departLane="gneE0_0" departPos="5.10" departSpeed="0.00" departDelay="0.00" arrival="155.00" arrivalLane="gneE1_0" arrivalPos="495.25" arrivalSpeed="12.71" duration="80.00" routeLength="994.90" waitSteps="0" timeLoss="7.60" rerouteNo="0" devices="tripinfo_75" vType="DEFAULT_VEHTYPE" speedFactor="1.00" vaporized=""/>
    <tripinfo id="88" depart="88.00" departLane="gneE0_0" departPos="5.10" departSpeed="0.00" departDelay="0.00" arrival="168.00" arrivalLane="gneE1_0" arrivalPos="495.25" arrivalSpeed="13.85" duration="80.00" routeLength="994.90" waitSteps="0" timeLoss="7.48" rerouteNo="0" devices="tripinfo_88" vType="DEFAULT_VEHTYPE" speedFactor="1.00" vaporized=""/>
    <tripinfo id="89" depart="91.00" departLane="gneE0_0" departPos="5.10" departSpeed="0.00" departDelay="2.00" arrival="170.00" arrivalLane="gneE1_0" arrivalPos="495.25" arrivalSpeed="12.71" duration="79.00" routeLength="994.90" waitSteps="0" timeLoss="6.99" rerouteNo="0" devices="tripinfo_89" vType="DEFAULT_VEHTYPE" speedFactor="1.00" vaporized=""/>
    <tripinfo id="95" depart="95.00" departLane="-gneE1_0" departPos="5.10" departSpeed="0.00" departDelay="0.00" arrival="174.00" arrivalLane="-gneE0_0" arrivalPos="495.25" arrivalSpeed="12.75" duration="79.00" routeLength="994.90" waitSteps="0" timeLoss="6.50" rerouteNo="0" devices="tripinfo_95" vType="DEFAULT_VEHTYPE" speedFactor="1.00" vaporized=""/>
    <tripinfo id="99" depart="99.00" departLane="gneE0_0" departPos="5.10" departSpeed="0.00" departDelay="0.00" arrival="177.00" arrivalLane="gneE1_0" arrivalPos="495.25" arrivalSpeed="13.75" duration="78.00" routeLength="994.90" waitSteps="0" timeLoss="6.00" rerouteNo="0" devices="tripinfo_99" vType="DEFAULT_VEHTYPE" speedFactor="1.00" vaporized=""/>
    <tripinfo id="100" depart="100.00" departLane="-gneE1_0" departPos="5.10" departSpeed="0.00" departDelay="0.00" arrival="178.00" arrivalLane="-gneE0_0" arrivalPos="495.25" arrivalSpeed="12.62" duration="78.00" routeLength="994.90" waitSteps="0" timeLoss="6.14" rerouteNo="0" devices="tripinfo_100" vType="DEFAULT_VEHTYPE" speedFactor="1.00" vaporized=""/>
    <tripinfo id="104" depart="104.00" departLane="gneE0_0" departPos="5.10" departSpeed="0.00" departDelay="0.00" arrival="183.00" arrivalLane="gneE1_0" arrivalPos="495.25" arrivalSpeed="12.72" duration="79.00" routeLength="994.90" waitSteps="0" timeLoss="6.63" rerouteNo="0" devices="tripinfo_104" vType="DEFAULT_VEHTYPE" speedFactor="1.00" vaporized=""/>
    <tripinfo id="105" depart="107.00" departLane="gneE0_0" departPos="5.10" departSpeed="0.00" departDelay="2.00" arrival="186.00" arrivalLane="gneE1_0" arrivalPos="495.25" arrivalSpeed="13.76" duration="79.00" routeLength="994.90" waitSteps="0" timeLoss="6.39" rerouteNo="0" devices="tripinfo_105" vType="DEFAULT_VEHTYPE" speedFactor="1.00" vaporized=""/>
    <tripinfo id="106" depart="110.00" departLane="gneE0_0" departPos="5.10" departSpeed="0.00" departDelay="4.00" arrival="188.00" arrivalLane="gneE1_0" arrivalPos="495.25" arrivalSpeed="12.94" duration="78.00" routeLength="994.90" waitSteps="0" timeLoss="5.82" rerouteNo="0" devices="tripinfo_106" vType="DEFAULT_VEHTYPE" speedFactor="1.00" vaporized=""/>
    <tripinfo id="137" depart="137.00" departLane="gneE0_0" departPos="5.10" departSpeed="0.00" departDelay="0.00" arrival="216.00" arrivalLane="gneE1_0" arrivalPos="495.25" arrivalSpeed="12.84" duration="79.00" routeLength="994.90" waitSteps="0" timeLoss="6.54" rerouteNo="0" devices="tripinfo_137" vType="DEFAULT_VEHTYPE" speedFactor="1.00" vaporized=""/>
    <tripinfo id="115" depart="115.00" departLane="gneE2_0" departPos="5.10" departSpeed="0.00" departDelay="0.00" arrival="220.00" arrivalLane="gneE3_0" arrivalPos="495.25" arrivalSpeed="13.45" duration="105.00" routeLength="994.90" waitSteps="22" timeLoss="33.24" rerouteNo="0" devices="tripinfo_115" vType="DEFAULT_VEHTYPE" speedFactor="1.00" vaporized=""/>
    <tripinfo id="79" depart="79.00" departLane="-gneE3_0" departPos="5.10" departSpeed="0.00" departDelay="0.00" arrival="221.00" arrivalLane="-gneE2_0" arrivalPos="495.25" arrivalSpeed="13.03" duration="142.00" routeLength="994.90" waitSteps="56" timeLoss="69.82" rerouteNo="0" devices="tripinfo_79" vType="DEFAULT_VEHTYPE" speedFactor="1.00" vaporized=""/>
    <tripinfo id="143" depart="143.00" departLane="gneE2_0" departPos="5.10" departSpeed="0.00" departDelay="0.00" arrival="222.00" arrivalLane="gneE3_0" arrivalPos="495.25" arrivalSpeed="12.75" duration="79.00" routeLength="994.90" waitSteps="0" timeLoss="7.15" rerouteNo="0" devices="tripinfo_143" vType="DEFAULT_VEHTYPE" speedFactor="1.00" vaporized=""/>
    <tripinfo id="86" depart="86.00" departLane="-gneE3_0" departPos="5.10" departSpeed="0.00" departDelay="0.00" arrival="223.00" arrivalLane="-gneE2_0" arrivalPos="495.25" arrivalSpeed="12.78" duration="137.00" routeLength="994.90" waitSteps="52" timeLoss="64.65" rerouteNo="0" devices="tripinfo_86" vType="DEFAULT_VEHTYPE" speedFactor="1.00" vaporized=""/>
    <tripinfo id="93" depart="93.00" departLane="-gneE3_0" departPos="5.10" departSpeed="0.00" departDelay="0.00" arrival="225.00" arrivalLane="-gneE2_0" arrivalPos="495.25" arrivalSpeed="13.77" duration="132.00" routeLength="994.90" waitSteps="48" timeLoss="59.59" rerouteNo="0" devices="tripinfo_93" vType="DEFAULT_VEHTYPE" speedFactor="1.00" vaporized=""/>
    <tripinfo id="146" depart="146.00" departLane="gneE2_0" departPos="5.10" departSpeed="0.00" departDelay="0.00" arrival="225.00" arrivalLane="gneE3_0" arrivalPos="495.25" arrivalSpeed="13.43" duration="79.00" routeLength="994.90" waitSteps="0" timeLoss="6.91" rerouteNo="0" devices="tripinfo_146" vType="DEFAULT_VEHTYPE" speedFactor="1.00" vaporized=""/>
    <tripinfo id="140" depart="140.00" departLane="gneE0_0" departPos="5.10" departSpeed="0.00" departDelay="0.00" arrival="230.00" arrivalLane="gneE1_0" arrivalPos="495.25" arrivalSpeed="13.35" duration="90.00" routeLength="994.90" waitSteps="8" timeLoss="17.84" rerouteNo="0" devices="tripinfo_140" vType="DEFAULT_VEHTYPE" speedFactor="1.00" vaporized=""/>
    <tripinfo id="144" depart="144.00" departLane="gneE0_0" departPos="5.10" departSpeed="0.00" departDelay="0.00" arrival="232.00" arrivalLane="gneE1_0" arrivalPos="495.25" arrivalSpeed="12.70" duration="88.00" routeLength="994.90" waitSteps="4" timeLoss="16.36" rerouteNo="0" devices="tripinfo_144" vType="DEFAULT_VEHTYPE" speedFactor="1.00" vaporized=""/>
    <tripinfo id="145" depart="147.00" departLane="gneE0_0" departPos="5.10" departSpeed="0.00" departDelay="2.00" arrival="234.00" arrivalLane="gneE1_0" arrivalPos="495.25" arrivalSpeed="12.92" duration="87.00" routeLength="994.90" waitSteps="3" timeLoss="15.19" rerouteNo="0" devices="tripinfo_145" vType="DEFAULT_VEHTYPE" speedFactor="1.00" vaporized=""/>
    <tripinfo id="175" depart="175.00" departLane="-gneE1_0" departPos="5.10" departSpeed="0.00" departDelay="0.00" arrival="253.00" arrivalLane="-gneE0_0" arrivalPos="495.25" arrivalSpeed="12.78" duration="78.00" routeLength="994.90" waitSteps="0" timeLoss="6.17" rerouteNo="0" devices="tripinfo_175" vType="DEFAULT_VEHTYPE" speedFactor="1.00" vaporized=""/>
    <tripinfo id="176" depart="176.00" departLane="gneE0_0" departPos="5.10" departSpeed="0.00" departDelay="0.00" arrival="254.00" arrivalLane="gneE1_0" arrivalPos="495.25" arrivalSpeed="13.69" duration="78.00" routeLength="994.90" waitSteps="0" timeLoss="6.00" rerouteNo="0" devices="tripinfo_176" vType="DEFAULT_VEHTYPE" speedFactor="1.00" vaporized=""/>
    <tripinfo id="194" depart="194.00" departLane="gneE0_0" departPos="5.10" departSpeed="0.00" departDelay="0.00" arrival="273.00" arrivalLane="gneE1_0" arrivalPos="495.25" arrivalSpeed="13.65" duration="79.00" routeLength="994.90" waitSteps="0" timeLoss="6.57" rerouteNo="0" devices="tripinfo_194" vType="DEFAULT_VEHTYPE" speedFactor="1.00" vaporized=""/>
    <tripinfo id="197" depart="197.00" departLane="gneE0_0" departPos="5.10" departSpeed="0.00" departDelay="0.00" arrival="275.00" arrivalLane="gneE1_0" arrivalPos="495.25" arrivalSpeed="13.60" duration="78.00" routeLength="994.90" waitSteps="0" timeLoss="6.06" rerouteNo="0" devices="tripinfo_197" vType="DEFAULT_VEHTYPE" speedFactor="1.00" vaporized=""/>
    <tripinfo id="103" depart="103.00" departLane="-gneE3_0" departPos="5.10" departSpeed="0.00" departDelay="0.00" arrival="311.00" arrivalLane="-gneE2_0" arrivalPos="495.25" arrivalSpeed="13.48" duration="208.00" routeLength="994.90" waitSteps="117" timeLoss="135.73" rerouteNo="0" devices="tripinfo_103" vType="DEFAULT_VEHTYPE" speedFactor="1.00" vaporized=""/>
    <tripinfo id="178" depart="178.00" departLane="gneE2_0" departPos="5.10" departSpeed="0.00" departDelay="0.00" arrival="311.00" arrivalLane="gneE3_0" arrivalPos="495.25" arrivalSpeed="13.11" duration="133.00" routeLength="994.90" waitSteps="47" timeLoss="60.79" rerouteNo="0" devices="tripinfo_178" vType="DEFAULT_VEHTYPE" speedFactor="1.00" vaporized=""/>
    <tripinfo id="117" depart="117.00" departLane="-gneE3_0" departPos="5.10" departSpeed="0.00" departDelay="0.00" arrival="313.00" arrivalLane="-gneE2_0" arrivalPos="495.25" arrivalSpeed="12.73" duration="196.00" routeLength="994.90" waitSteps="105" timeLoss="123.70" rerouteNo="0" devices="tripinfo_117" vType="DEFAULT_VEHTYPE" speedFactor="1.00" vaporized=""/>
    <tripinfo id="186" depart="186.00" departLane="gneE2_0" departPos="5.10" departSpeed="0.00" departDelay="0.00" arrival="3