<?xml version="1.0" encoding="UTF-8"?>

<!-- generated on 16/10/2018 15:24:47 by SUMO gui Version 0.32.0
<?xml version="1.0" encoding="UTF-8"?>

<configuration xmlns:xsi="http://www.w3.org/2001/XMLSchema-instance" xsi:noNamespaceSchemaLocation="http://sumo.dlr.de/xsd/sumoConfiguration.xsd">

    <input>
        <net-file value="C:\Users\acabrejasegea\OneDrive%20-%20The%20Alan%20Turing%20Institute\Desktop\ATI\0_TMF\MLforFlowOptimisation\Networks\cross_straight_random\cross_straight_random.net.xml"/>
        <route-files value="C:\Users\acabrejasegea\OneDrive%20-%20The%20Alan%20Turing%20Institute\Desktop\ATI\0_TMF\MLforFlowOptimisation\Networks\cross_straight_random\cross_straight_random.rou.xml"/>
    </input>

    <output>
        <tripinfo-output value="BasicQ_cross_straight_random_out\tripinfo.xml"/>
    </output>

    <time>
        <begin value="0"/>
    </time>

    <report>
        <verbose value="true"/>
        <no-step-log value="true"/>
    </report>

    <traci_server>
        <remote-port value="62262"/>
    </traci_server>

</configuration>
-->

<tripinfos xmlns:xsi="http://www.w3.org/2001/XMLSchema-instance" xsi:noNamespaceSchemaLocation="http://sumo.dlr.de/xsd/tripinfo_file.xsd">
    <tripinfo id="left_1" depart="1.00" departLane="iE_0" departPos="5.10" departSpeed="0.00" departDelay="0.00" arrival="157.00" arrivalLane="oW_0" arrivalPos="995.25" arrivalSpeed="13.53" duration="156.00" routeLength="1994.90" waitSteps="0" timeLoss="12.11" rerouteNo="0" devices="tripinfo_left_1" vType="typeWE" speedFactor="1.00" vaporized=""/>
    <tripinfo id="right_0" depart="1.00" departLane="iW_0" departPos="5.10" departSpeed="0.00" departDelay="0.00" arrival="158.00" arrivalLane="oE_0" arrivalPos="995.25" arrivalSpeed="13.54" duration="157.00" routeLength="1994.90" waitSteps="0" timeLoss="12.75" rerouteNo="0" devices="tripinfo_right_0" vType="typeWE" speedFactor="1.00" vaporized=""/>
    <tripinfo id="down_2" depart="3.00" departLane="iS_0" departPos="5.10" departSpeed="0.00" departDelay="0.00" arrival="174.00" arrivalLane="oN_0" arrivalPos="995.25" arrivalSpeed="13.55" duration="171.00" routeLength="1994.90" waitSteps="0" timeLoss="26.80" rerouteNo="0" devices="tripinfo_down_2" vType="typeNS" speedFactor="1.00" vaporized=""/>
    <tripinfo id="down_3" depart="8.00" departLane="iS_0" departPos="5.10" departSpeed="0.00" departDelay="2.00" arrival="176.00" arrivalLane="oN_0" arrivalPos="995.25" arrivalSpeed="13.73" duration="168.00" routeLength="1994.90" waitSteps="0" timeLoss="23.62" rerouteNo="0" devices="tripinfo_down_3" vType="typeNS" speedFactor="1.00" vaporized=""/>
    <tripinfo id="down_8" depart="18.00" departLane="iN_0" departPos="5.10" departSpeed="0.00" departDelay="0.00" arrival="176.00" arrivalLane="oS_0" arrivalPos="995.25" arrivalSpeed="13.66" duration="158.00" routeLength="1994.90" waitSteps="0" timeLoss="13.58" rerouteNo="0" devices="tripinfo_down_8" vType="typeNS" speedFactor="1.00" vaporized=""/>
    <tripinfo id="down_4" depart="13.00" departLane="iS_0" departPos="5.10" departSpeed="0.00" departDelay="5.00" arrival="178.00" arrivalLane="oN_0" arrivalPos="995.25" arrivalSpeed="13.54" duration="165.00" routeLength="1994.90" waitSteps="0" timeLoss="20.57" rerouteNo="0" devices="tripinfo_down_4" vType="typeNS" speedFactor="1.00" vaporized=""/>
    <tripinfo id="down_6" depart="18.00" departLane="iS_0" departPos="5.10" departSpeed="0.00" departDelay="3.00" arrival="179.00" arrivalLane="oN_0" arrivalPos="995.25" arrivalSpeed="13.84" duration="161.00" routeLength="1994.90" waitSteps="0" timeLoss="17.13" rerouteNo="0" devices="tripinfo_down_6" vType="typeNS" speedFactor="1.00" vaporized=""/>
    <tripinfo id="down_12" depart="23.00" departLane="iN_0" departPos="5.10" departSpeed="0.00" departDelay="0.00" arrival="180.00" arrivalLane="oS_0" arrivalPos="995.25" arrivalSpeed="13.53" duration="157.00" routeLength="1994.90" waitSteps="0" timeLoss="13.07" rerouteNo="0" devices="tripinfo_down_12" vType="typeNS" speedFactor="1.00" vaporized=""/>
    <tripinfo id="down_7" depart="23.00" departLane="iS_0" departPos="5.10" departSpeed="0.00" departDelay="6.00" arrival="181.00" arrivalLane="oN_0" arrivalPos="995.25" arrivalSpeed="13.86" duration="158.00" routeLength="1994.90" waitSteps="0" timeLoss="13.87" rerouteNo="0" devices="tripinfo_down_7" vType="typeNS" speedFactor="1.00" vaporized=""/>
    <tripinfo id="down_13" depart="28.00" departLane="iS_0" departPos="5.10" departSpeed="0.00" departDelay="4.00" arrival="185.00" arrivalLane="oN_0" arrivalPos="995.25" arrivalSpeed="13.80" duration="157.00" routeLength="1994.90" waitSteps="0" timeLoss="13.10" rerouteNo="0" devices="tripinfo_down_13" vType="typeNS" speedFactor="1.00" vaporized=""/>
    <tripinfo id="down_16" depart="36.00" departLane="iS_0" departPos="5.10" departSpeed="0.00" departDelay="0.00" arrival="193.00" arrivalLane="oN_0" arrivalPos="995.25" arrivalSpeed="13.88" duration="157.00" routeLength="1994.90" waitSteps="0" timeLoss="13.06" rerouteNo="0" devices="tripinfo_down_16" vType="typeNS" speedFactor="1.00" vaporized=""/>
    <tripinfo id="down_18" depart="40.00" departLane="iN_0" departPos="5.10" departSpeed="0.00" departDelay="0.00" arrival="198.00" arrivalLane="oS_0" arrivalPos="995.25" arrivalSpeed="13.55" duration="158.00" routeLength="1994.90" waitSteps="0" timeLoss="14.10" rerouteNo="0" devices="tripinfo_down_18" vType="typeNS" speedFactor="1.00" vaporized=""/>
    <tripinfo id="down_21" depart="45.00" departLane="iS_0" departPos="5.10" departSpeed="0.00" departDelay="0.00" arrival="203.00" arrivalLane="oN_0" arrivalPos="995.25" arrivalSpeed="13.50" duration="158.00" routeLength="1994.90" waitSteps="0" timeLoss="14.04" rerouteNo="0" devices="tripinfo_down_21" vType="typeNS" speedFactor="1.00" vaporized=""/>
    <tripinfo id="right_9" depart="21.00" departLane="iW_0" departPos="5.10" departSpeed="0.00" departDelay="0.00" arrival="225.00" arrivalLane="oE_0" arrivalPos="995.25" arrivalSpeed="13.82" duration="204.00" routeLength="1994.90" waitSteps="36" timeLoss="60.31" rerouteNo="0" devices="tripinfo_right_9" vType="typeWE" speedFactor="1.00" vaporized=""/>
    <tripinfo id="left_5" depart="9.00" departLane="iE_0" departPos="5.10" departSpeed="0.00" departDelay="0.00" arrival="226.00" arrivalLane="oW_0" arrivalPos="995.25" arrivalSpeed="13.77" duration="217.00" routeLength="1994.90" waitSteps="46" timeLoss="72.95" rerouteNo="0" devices="tripinfo_left_5" vType="typeWE" speedFactor="1.00" vaporized=""/>
    <tripinfo id="right_11" depart="26.00" departLane="iW_0" departPos="5.10" departSpeed="0.00" departDelay="3.00" arrival="227.00" arrivalLane="oE_0" arrivalPos="995.25" arrivalSpeed="13.52" duration="201.00" routeLength="1994.90" waitSteps="31" timeLoss="57.07" rerouteNo="0" devices="tripinfo_right_11" vType="typeWE" speedFactor="1.00" vaporized=""/>
    <tripinfo id="left_10" depart="21.00" departLane="iE_0" departPos="5.10" departSpeed="0.00" departDelay="0.00" arrival="228.00" arrivalLane="oW_0" arrivalPos="995.25" arrivalSpeed="13.55" duration="207.00" routeLength="1994.90" waitSteps="36" timeLoss="62.66" rerouteNo="0" devices="tripinfo_left_10" vType="typeWE" speedFactor="1.00" vaporized=""/>
    <tripinfo id="left_17" depart="39.00" departLane="iE_0" departPos="5.10" departSpeed="0.00" departDelay="0.00" arrival="229.00" arrivalLane="oW_0" arrivalPos="995.25" arrivalSpeed="13.62" duration="190.00" routeLength="1994.90" waitSteps="20" timeLoss="46.27" rerouteNo="0" devices="tripinfo_left_17" vType="typeWE" speedFactor="1.00" vaporized=""/>
    <tripinfo id="right_14" depart="31.00" departLane="iW_0" departPos="5.10" departSpeed="0.00" departDelay="6.00" arrival="230.00" arrivalLane="oE_0" arrivalPos="995.25" arrivalSpeed="13.79" duration="199.00" routeLength="1994.90" waitSteps="28" timeLoss="55.02" rerouteNo="0" devices="tripinfo_right_14" vType="typeWE" speedFactor="1.00" vaporized=""/>
    <tripinfo id="left_19" depart="44.00" departLane="iE_0" departPos="5.10" departSpeed="0.00" departDelay="3.00" arrival="232.00" arrivalLane="oW_0" arrivalPos="995.25" arrivalSpeed="13.63" duration="188.00" routeLength="1994.90" waitSteps="16" timeLoss="43.95" rerouteNo="0" devices="tripinfo_left_19" vType="typeWE" speedFactor="1.00" vaporized=""/>
    <tripinfo id="right_15" depart="36.00" departLane="iW_0" departPos="5.10" departSpeed="0.00" departDelay="6.00" arrival="232.00" arrivalLane="oE_0" arrivalPos="995.25" arrivalSpeed="13.62" duration="196.00" routeLength="1994.90" waitSteps="24" timeLoss="51.89" rerouteNo="0" devices="tripinfo_right_15" vType="typeWE" speedFactor="1.00" vaporized=""/>
    <tripinfo id="left_20" depart="49.00" departLane="iE_0" departPos="5.10" departSpeed="0.00" departDelay="6.00" arrival="234.00" arrivalLane="oW_0" arrivalPos="995.25" arrivalSpeed="13.73" duration="185.00" routeLength="1994.90" waitSteps="13" timeLoss="40.76" rerouteNo="0" devices="tripinfo_left_20" vType="typeWE" speedFactor="1.00" vaporized=""/>
    <tripinfo id="right_22" depart="47.00" departLane="iW_0" departPos="5.10" departSpeed="0.00" departDelay="0.00" arrival="234.00" arrivalLane="oE_0" arrivalPos="995.25" arrivalSpeed="13.74" duration="187.00" routeLength="1994.90" waitSteps="15" timeLoss="42.61" rerouteNo="0" devices="tripinfo_right_22" vType="typeWE" speedFactor="1.00" vaporized=""/>
    <tripinfo id="left_23" depart="54.00" departLane="iE_0" departPos="5.10" departSpeed="0.00" departDelay="5.00" arrival="236.00" arrivalLane="oW_0" arrivalPos="995.25" arrivalSpeed="13.89" duration="182.00" routeLength="1994.90" waitSteps="9" timeLoss="37.47" rerouteNo="0" devices="tripinfo_left_23" vType="typeWE" speedFactor="1.00" vaporized=""/>
    <tripinfo id="right_25" depart="59.00" departLane="iW_0" departPos="5.10" departSpeed="0.00" departDelay="0.00" arrival="236.00" arrivalLane="oE_0" arrivalPos="995.25" arrivalSpeed="13.86" duration="177.00" routeLength="1994.90" waitSteps="5" timeLoss="32.54" rerouteNo="0" devices="tripinfo_right_25" vType="typeWE" speedFactor="1.00" vaporized=""/>
    <tripinfo id="left_29" depart="68.00" departLane="iE_0" departPos="5.10" departSpeed="0.00" departDelay="0.00" arrival="237.00" arrivalLane="oW_0" arrivalPos="995.25" arrivalSpeed="13.51" duration="169.00" routeLength="1994.90" waitSteps="0" timeLoss="25.35" rerouteNo="0" devices="tripinfo_left_29" vType="typeWE" speedFactor="1.00" vaporized=""/>
    <tripinfo id="right_32" depart="81.00" departLane="iW_0" departPos="5.10" departSpeed="0.00" departDelay="0.00" arrival="238.00" arrivalLane="oE_0" arrivalPos="995.25" arrivalSpeed="13.56" duration="157.00" routeLength="1994.90" waitSteps="0" timeLoss="13.18" rerouteNo="0" devices="tripinfo_right_32" vType="typeWE" speedFactor="1.00" vaporized=""/>
    <tripinfo id="left_30" depart="79.00" departLane="iE_0" departPos="5.10" departSpeed="0.00" departDelay="0.00" arrival="239.00" arrivalLane="oW_0" arrivalPos="995.25" arrivalSpeed="13.75" duration="160.00" routeLength="1994.90" waitSteps="0" timeLoss="15.94" rerouteNo="0" devices="tripinfo_left_30" vType="typeWE" speedFactor="1.00" vaporized=""/>
    <tripinfo id="left_31" depart="84.00" departLane="iE_0" departPos="5.10" departSpeed="0.00" departDelay="4.00" arrival="241.00" arrivalLane="oW_0" arrivalPos="995.25" arrivalSpeed="13.66" duration="157.00" routeLength="1994.90" waitSteps="0" timeLoss="12.55" rerouteNo="0" devices="tripinfo_left_31" vType="typeWE" speedFactor="1.00" vaporized=""/>
    <tripinfo id="right_35" depart="88.00" departLane="iW_0" departPos="5.10" departSpeed="0.00" departDelay="0.00" arrival="245.00" arrivalLane="oE_0" arrivalPos="995.25" arrivalSpeed="13.57" duration="157.00" routeLength="1994.90" waitSteps="0" timeLoss="13.08" rerouteNo="0" devices="tripinfo_right_35" vType="typeWE" speedFactor="1.00" vaporized=""/>
    <tripinfo id="left_33" depart="89.00" departLane="iE_0" departPos="5.10" departSpeed="0.00" departDelay="6.00" arrival="246.00" arrivalLane="oW_0" arrivalPos="995.25" arrivalSpeed="13.85" duration="157.00" routeLength="1994.90" waitSteps="0" timeLoss="13.31" rerouteNo="0" devices="tripinfo_left_33" vType="typeWE" speedFactor="1.00" vaporized=""/>
    <tripinfo id="down_24" depart="58.00" departLane="iS_0" departPos="5.10" departSpeed="0.00" departDelay="0.00" arrival="263.00" arrivalLane="oN_0" arrivalPos="995.25" arrivalSpeed="13.68" duration="205.00" routeLength="1994.90" waitSteps="36" timeLoss="61.15" rerouteNo="0" devices="tripinfo_down_24" vType="typeNS" speedFactor="1.00" vaporized=""/>
    <tripinfo id="down_27" depart="66.00" departLane="iN_0" departPos="5.10" departSpeed="0.00" departDelay="0.00" arrival="263.00" arrivalLane="oS_0" arrivalPos="995.25" arrivalSpeed="13.57" duration="197.00" routeLength="1994.90" waitSteps="28" timeLoss="53.17" rerouteNo="0" devices="tripinfo_down_27" vType="typeNS" speedFactor="1.00" vaporized=""/>
    <tripinfo id="down_26" depart="63.00" departLane="iS_0" departPos="5.10" departSpeed="0.00" departDelay="3.00" arrival="266.00" arrivalLane="oN_0" arrivalPos="995.25" arrivalSpeed="13.51" duration="203.00" routeLength="1994.90" waitSteps="32" timeLoss="58.73" rerouteNo="0" devices="tripinfo_down_26" vType="typeNS" speedFactor="1.00" vaporized=""/>
    <tripinfo id="down_34" depart="87.00" departLane="iN_0" departPos="5.10" departSpeed="0.00" departDelay="0.00" arrival="266.00" arrivalLane="oS_0" arrivalPos="995.25" arrivalSpeed="13.71" duration="179.00" routeLength="1994.90" waitSteps="8" timeLoss="34.90" rerouteNo="0" devices="tripinfo_down_34" vType="typeNS" speedFactor="1.00" vaporized=""/>
    <tripinfo id="down_28" depart="68.00" departLane="iS_0" departPos="5.10" departSpeed="0.00" departDelay="1.00" arrival="268.00" arrivalLane="oN_0" arrivalPos="995.25" arrivalSpeed="13.65" duration="200.00" routeLength="1994.90" waitSteps="30" timeLoss="55.48" rerouteNo="0" devices="tripinfo_down_28" vType="typeNS" speedFactor="1.00" vaporized=""/>
    <tripinfo id="down_36" depart="92.00" departLane="iN_0" departPos="5.10" departSpeed="0.00" departDelay="3.00" arrival="268.00" arrivalLane="oS_0" arrivalPos="995.25" arrivalSpeed="13.63" duration="176.00" routeLength="1994.90" waitSteps="5" timeLoss="31.58" rerouteNo="0" devices="tripinfo_down_36" vType="typeNS" speedFactor="1.00" vaporized=""/>
    <tripinfo id="down_47" depart="100.00" departLane="iS_0" departPos="5.10" departSpeed="0.00" departDelay="0.00" arrival="269.00" arrivalLane="oN_0" arrivalPos="995.25" arrivalSpeed="13.63" duration="169.00" routeLength="1994.90" waitSteps="0" timeLoss="25.20" rerouteNo="0" devices="tripinfo_down_47" vType="typeNS" speedFactor="1.00" vaporized=""/>
    <tripinfo id="down_40" depart="97.00" departLane="iN_0" departPos="5.10" departSpeed="0.00" departDelay="5.00" arrival="270.00" arrivalLane="oS_0" arrivalPos="995.25" arrivalSpeed="13.52" duration="173.00" routeLength="1994.90" waitSteps="2" timeLoss="28.57" rerouteNo="0" devices="tripinfo_down_40" vType="typeNS" speedFactor="1.00" vaporized=""/>
    <tripinfo id="down_50" depart="107.00" departLane="iS_0" departPos="5.10" departSpeed="0.00" departDelay="0.00" arrival="271.00" arrivalLane="oN_0" arrivalPos="995.25" arrivalSpeed="13.52" duration="164.00" routeLength="1994.90" waitSteps="0" timeLoss="20.05" rerouteNo="0" devices="tripinfo_down_50" vType="typeNS" speedFactor="1.00" vaporized=""/>
    <tripinfo id="down_43" depart="102.00" departLane="iN_0" departPos="5.10" departSpeed="0.00" departDelay="8.00" arrival="271.00" arrivalLane="oS_0" arrivalPos="995.25" arrivalSpeed="13.65" duration="169.00" routeLength="1994.90" waitSteps="0" timeLoss="25.20" rerouteNo="0" devices="tripinfo_down_43" vType="typeNS" speedFactor="1.00" vaporized=""/>
    <tripinfo id="down_44" depart="107.00" departLane="iN_0" departPos="5.10" departSpeed="0.00" departDelay="11.00" arrival="273.00" arrivalLane="oS_0" arrivalPos="995.25" arrivalSpeed="13.75" duration="166.00" routeLength="1994.90" waitSteps="0" timeLoss="22.09" rerouteNo="0" devices="tripinfo_down_44" vType="typeNS" speedFactor="1.00" vaporized=""/>
    <tripinfo id="down_45" depart="112.00" departLane="iN_0" departPos="5.10" departSpeed="0.00" departDelay="14.00" arrival="275.00" arrivalLane="oS_0" arrivalPos="995.25" arrivalSpeed="13.88" duration="163.00" routeLength="1994.90" waitSteps="0" timeLoss="18.68" rerouteNo="0" devices="tripinfo_down_45" vType="typeNS" speedFactor="1.00" vaporized=""/>
    <tripinfo id="down_48" depart="117.00" departLane="iN_0" departPos="5.10" departSpeed="0.00" departDelay="16.00" arrival="276.00" arrivalLane="oS_0" arrivalPos="995.25" arrivalSpeed="13.66" duration="159.00" routeLength="1994.90" waitSteps="0" timeLoss="15.33" rerouteNo="0" devices="tripinfo_down_48" vType="typeNS" speedFactor="1.00" vaporized=""/>
    <tripinfo id="down_58" depart="121.00" departLane="iS_0" departPos="5.10" departSpeed="0.00" departDelay="0.00" arrival="279.00" arrivalLane="oN_0" arrivalPos="995.25" arrivalSpeed="13.65" duration="158.00" routeLength="1994.90" waitSteps="0" timeLoss="13.93" rerouteNo="0" devices="tripinfo_down_58" vType="typeNS" speedFactor="1.00" vaporized=""/>
    <tripinfo id="down_49" depart="122.00" departLane="iN_0" departPos="5.10" departSpeed="0.00" departDelay="17.00" arrival="279.00" arrivalLane="oS_0" arrivalPos="995.25" arrivalSpeed="13.72" duration="157.00" routeLength="1994.90" waitSteps="0" timeLoss="13.16" rerouteNo="0" devices="tripinfo_down_49" vType="typeNS" speedFactor="1.00" vaporized=""/>
    <tripinfo id="down_60" depart="126.00" departLane="iS_0" departPos="5.10" departSpeed="0.00" departDelay="3.00" arrival="283.00" arrivalLane="oN_0" arrivalPos="995.25" arrivalSpeed="13.53" duration="157.00" routeLength="1994.90" waitSteps="0" timeLoss="12.81" rerouteNo="0" devices="tripinfo_down_60" vType="typeNS" speedFactor="1.00" vaporized=""/>
    <tripinfo id="down_56" depart="127.00" departLane="iN_0" departPos="5.10" departSpeed="0.00" departDelay="12.00" arrival="285.00" arrivalLane="oS_0" arrivalPos="995.25" arrivalSpeed="13.54" duration="158.00" routeLength="1994.90" waitSteps="0" timeLoss="13.48" rerouteNo="0" devices="tripinfo_down_56" vType="typeNS" speedFactor="1.00" vaporized=""/>
    <tripinfo id="down_61" depart="131.00" departLane="iS_0" departPos="5.10" departSpeed="0.00" departDelay="6.00" arrival="288.00" arrivalLane="oN_0" arrivalPos="995.25" arrivalSpeed="13.88" duration="157.00" routeLength="1994.90" waitSteps="0" timeLoss="12.89" rerouteNo="0" devices="tripinfo_down_61" vType="typeNS" speedFactor="1.00" vaporized=""/>
    <tripinfo id="down_57" depart="132.00" departLane="iN_0" departPos="5.10" departSpeed="0.00" departDelay="13.00" arrival="289.00" arrivalLane="oS_0" arrivalPos="995.25" arrivalSpeed="13.58" duration="157.00" routeLength="1994.90" waitSteps="0" timeLoss="13.36" rerouteNo="0" devices="tripinfo_down_57" vType="typeNS" speedFactor="1.00" vaporized=""/>
    <tripinfo id="down_65" depart="136.00" departLane="iS_0" departPos="5.10" departSpeed="0.00" departDelay="7.00" arrival="294.00" arrivalLane="oN_0" arrivalPos="995.25" arrivalSpeed="13.69" duration="158.00" routeLength="1994.90" waitSteps="0" timeLoss="13.70" rerouteNo="0" devices="tripinfo_down_65" vType="typeNS" speedFactor="1.00" vaporized=""/>
    <tripinfo id="down_64" depart="137.00" departLane="iN_0" departPos="5.10" departSpeed="0.00" departDelay="9.00" arrival="294.00" arrivalLane="oS_0" arrivalPos="995.25" arrivalSpeed="13.70" duration="157.00" routeLength="1994.90" waitSteps="0" timeLoss="12.91" rerouteNo="0" devices="tripinfo_down_64" vType="typeNS" speedFactor="1.00" vaporized=""/>
    <tripinfo id="down_69" depart="142.00" departLane="iS_0" departPos="5.10" departSpeed="0.00" departDelay="0.00" arrival="299.00" arrivalLane="oN_0" arrivalPos="995.25" arrivalSpeed="13.53" duration="157.00" routeLength="1994.90" waitSteps="0" timeLoss="13.35" rerouteNo="0" devices="tripinfo_down_69" vType="typeNS" speedFactor="1.00" vaporized=""/>
    <tripinfo id="down_67" depart="142.00" departLane="iN_0" departPos="5.10" departSpeed="0.00" departDelay="6.00" arrival="300.00" arrivalLane="oS_0" arrivalPos="995.25" arrivalSpeed="13.61" duration="158.00" routeLength="1994.90" waitSteps="0" timeLoss="13.96" rerouteNo="0" devices="tripinfo_down_67" vType="typeNS" speedFactor="1.00" vaporized=""/>
    <tripinfo id="left_38" depart="94.00" departLane="iE_0" departPos="5.10" departSpeed="0.00" departDelay="3.00" arrival="315.00" arrivalLane="oW_0" arrivalPos="995.25" arrivalSpeed="13.71" duration="221.00" routeLength="1994.90" waitSteps="51" timeLoss="77.19" rerouteNo="0" devices="tripinfo_left_38" vType="typeWE" speedFactor="1.00" vaporized=""/>
    <tripinfo id="right_37" depart="93.00" departLane="iW_0" departPos="5.10" departSpeed="0.00" departDelay="3.00" arrival="316.00" arrivalLane="oE_0" arrivalPos="995.25" arrivalSpeed="13.61" duration="223.00" routeLength="1994.90" waitSteps="52" timeLoss="78.85" rerouteNo="0" devices="tripinfo_right_37" vType="typeWE" speedFactor="1.00" vaporized=""/>
    <tripinfo id="left_39" depart="99.00" departLane="iE_0" departPos="5.10" departSpeed="0.00" departDelay="7.00" arrival="318.00" arrivalLane="oW_0" arrivalPos="995.25" arrivalSpeed="13.81" duration="219.00" routeLength="1994.90" waitSteps="49" timeLoss="75.06" rerouteNo="0" devices="tripinfo_left_39" vType="typeWE" speedFactor="1.00" vaporized=""/>
    <tripinfo id="right_41" depart="98.00" departLane="iW_0" departPos="5.10" departSpeed="0.00" departDelay="4.00" arrival="318.00" arrivalLane="oE_0" arrivalPos="995.25" arrivalSpeed="13.85" duration="220.00" routeLength="1994.90" waitSteps="49" timeLoss="75.80" rerouteNo="0" devices="tripinfo_right_41" vType="typeWE" speedFactor="1.00" vaporized=""/>
    <tripinfo id="left_42" depart="104.00" departLane="iE_0" departPos="5.10" departSpeed="0.00" departDelay="10.00" arrival="320.00" arrivalLane="oW_0" arrivalPos="995.25" arrivalSpeed="13.49" duration="216.00" routeLength="1994.90" waitSteps="46" timeLoss="71.67" rerouteNo="0" devices="tripinfo_left_42" vType="typeWE" speedFactor="1.00" vaporized=""/>
    <tripinfo id="right_46" depart="103.00" departLane="iW_0" departPos="5.10" departSpeed="0.00" departDelay="4.00" arrival="320.00" arrivalLane="oE_0" arrivalPos="995.25" arrivalSpeed="13.52" duration="217.00" routeLength="1994.90" waitSteps="46" timeLoss="73.05" rerouteNo="0" devices="tripinfo_right_46" vType="typeWE" speedFactor="1.00" vaporized=""/>
    <tripinfo id="left_52" depart="109.00" departLane="iE_0" departPos="5.10" departSpeed="0.00" departDelay="0.00" arrival="322.00" arrivalLane="oW_0" arrivalPos="995.25" arrivalSpeed="13.86" duration="213.00" routeLength="1994.90" waitSteps="42" timeLoss="69.24" rerouteNo="0" devices="tripinfo_left_52" vType="typeWE" speedFactor="1.00" vaporized=""/>
    <tripinfo id="right_51" depart="108.00" departLane="iW_0" departPos="5.10" departSpeed="0.00" departDelay="0.00" arrival="322.00" arrivalLane="oE_0" arrivalPos="995.25" arrivalSpeed="13.57" duration="214.00" routeLength="1994.90" waitSteps="41" timeLoss="69.72" rerouteNo="0" devices="tripinfo_right_51" vType="typeWE" speedFactor="1.00" vaporized=""/>
    <tripinfo id="left_55" depart="115.00" departLane="iE_0" departPos="5.10" departSpeed="0.00" departDelay="0.00" arrival="324.00" arrivalLane="oW_0" arrivalPos="995.25" arrivalSpeed="13.82" duration="209.00" routeLength="1994.90" waitSteps="38" timeLoss="64.89" rerouteNo="0" devices="tripinfo_left_55" vType="typeWE" speedFactor="1.00" vaporized=""/>
    <tripinfo id="right_53" depart="113.00" departLane="iW_0" departPos="5.10" departSpeed="0.00" departDelay="3.00" arrival="324.00" arrivalLane="oE_0" arrivalPos="995.25" arrivalSpeed="13.52" duration="211.00" routeLength="1994.90" waitSteps="39" timeLoss="66.90" rerouteNo="0" devices="tripinfo_right_53" vType="typeWE" speedFactor="1.00" vaporized=""/>
    <tripinfo id="left_59" depart="123.00" departLane="iE_0" departPos="5.10" departSpeed="0.00" departDelay="0.00" arrival="326.00" arrivalLane="oW_0" arrivalPos="995.25" arrivalSpeed="13.73" duration="203.00" routeLength="1994.90" waitSteps="30" timeLoss="58.94" rerouteNo="0" devices="tripinfo_left_59" vType="typeWE" speedFactor="1.00" vaporized=""/>
    <tripinfo id="right_54" depart="118.00" departLane="iW_0" departPos="5.10" departSpeed="0.00" departDelay="4.00" arrival="326.00" arrivalLane="oE_0" arrivalPos="995.25" arrivalSpeed="13.80" duration="208.00" routeLength="1994.90" waitSteps="35" timeLoss="63.57" rerouteNo="0" devices="tripinfo_right_54" vType="typeWE" speedFactor="1.00" vaporized=""/>
    <tripinfo id="left_62" depart="128.00" departLane="iE_0" departPos="5.10" departSpeed="0.00" departDelay="2.00" arrival="328.00" arrivalLane="oW_0" arrivalPos="995.25" arrivalSpeed="13.59" duration="200.00" routeLength="1994.90" waitSteps="26" timeLoss="56.00" rerouteNo="0" devices="tripinfo_left_62" vType="typeWE" speedFactor="1.00" vaporized=""/>
    <tripinfo id="right_66" depart="136.00" departLane="iW_0" departPos="5.10" departSpeed="0.00" departDelay="0.00" arrival="328.00" arrivalLane="oE_0" arrivalPos="995.25" arrivalSpeed="13.85" duration="192.00" routeLength="1994.90" waitSteps="18" timeLoss="47.74" rerouteNo="0" devices="tripinfo_right_66" vType="typeWE" speedFactor="1.00" vaporized=""/>
    <tripinfo id="right_72" depart="148.00" departLane="iW_0" departPos="5.10" departSpeed="0.00" departDelay="0.00" arrival="329.00" arrivalLane="oE_0" arrivalPos="995.25" arrivalSpeed="13.76" duration="181.00" routeLength="1994.90" waitSteps="9" timeLoss="37.29" rerouteNo="0" devices="tripinfo_right_72" vType="typeWE" speedFactor="1.00" vaporized=""/>
    <tripinfo id="left_63" depart="133.00" departLane="iE_0" departPos="5.10" departSpeed="0.00" departDelay="5.00" arrival="330.00" arrivalLane="oW_0" arrivalPos="995.25" arrivalSpeed="13.78" duration="197.00" routeLength="1994.90" waitSteps="23" timeLoss="52.65" rerouteNo="0" devices="tripinfo_left_63" vType="typeWE" speedFactor="1.00" vaporized=""/>
    <tripinfo id="left_68" depart="138.00" departLane="iE_0" departPos="5.10" departSpeed="0.00" departDelay="1.00" arrival="331.00" arrivalLane="oW_0" arrivalPos="995.25" arrivalSpeed="13.69" duration="193.00" routeLength="1994.90" waitSteps="20" timeLoss="49.31" rerouteNo="0" devices="tripinfo_left_68" vType="typeWE" speedFactor="1.00" vaporized=""/>
    <tripinfo id="right_78" depart="166.00" departLane="iW_0" departPos="5.10" departSpeed="0.00" departDelay="0.00" arrival="331.00" arrivalLane="oE_0" arrivalPos="995.25" arrivalSpeed="13.84" duration="165.00" routeLength="1994.90" waitSteps="0" timeLoss="21.02" rerouteNo="0" devices="tripinfo_right_78" vType="typeWE" speedFactor="1.00" vaporized=""/>
    <tripinfo id="left_74" depart="157.00" departLane="iE_0" departPos="5.10" departSpeed="0.00" departDelay="0.00" arrival="333.00" arrivalLane="oW_0" arrivalPos="995.25" arrivalSpeed="13.78" duration="176.00" routeLength="1994.90" waitSteps="3" timeLoss="31.97" rerouteNo="0" devices="tripinfo_left_74" vType="typeWE" speedFactor="1.00" vaporized=""/>
    <tripinfo id="right_82" depart="172.00" departLane="iW_0" departPos="5.10" departSpeed="0.00" departDelay="0.00" arrival="333.00" arrivalLane="oE_0" arrivalPos="995.25" arrivalSpeed="13.79" duration="161.00" routeLength="1994.90" waitSteps="0" timeLoss="16.65" rerouteNo="0" devices="tripinfo_right_82" vType="typeWE" speedFactor="1.00" vaporized=""/>
    <tripinfo id="left_75" depart="162.00" departLane="iE_0" departPos="5.10" departSpeed="0.00" departDelay="3.00" arrival="335.00" arrivalLane="oW_0" arrivalPos="995.25" arrivalSpeed="13.54" duration="173.00" routeLength="1994.90" waitSteps="0" timeLoss="28.83" rerouteNo="0" devices="tripinfo_left_75" vType="typeWE" speedFactor="1.00" vaporized=""/>
    <tripinfo id="right_83" depart="177.00" departLane="iW_0" departPos="5.10" departSpeed="0.00" departDelay="3.00" arrival="335.00" arrivalLane="oE_0" arrivalPos="995.25" arrivalSpeed="13.82" duration="158.00" routeLength="1994.90" waitSteps="0" timeLoss="13.50" rerouteNo="0" devices="tripinfo_right_83" vType="typeWE" speedFactor="1.00" vaporized=""/>
    <tripinfo id="left_85" depart="182.00" departLane="iE_0" departPos="5.10" departSpeed="0.00" departDelay="0.00" arrival="338.00" arrivalLane="oW_0" arrivalPos="995.25" arrivalSpeed="13.76" duration="156.00" routeLength="1994.90" waitSteps="0" timeLoss="12.37" rerouteNo="0" devices="tripinfo_left_85" vType="typeWE" speedFactor="1.00" vaporized=""/>
    <tripinfo id="down_70" depart="147.00" departLane="iN_0" departPos="5.10" departSpeed="0.00" departDelay="1.00" arrival="353.00" arrivalLane="oS_0" arrivalPos="995.25" arrivalSpeed="13.83" duration="206.00" routeLength="1994.90" waitSteps="37" timeLoss="62.13" rerouteNo="0" devices="tripinfo_down_70" vType="typeNS" speedFactor="1.00" vaporized=""/>
    <tripinfo id="down_76" depart="162.00" departLane="iS_0" departPos="5.10" departSpeed="0.00" departDelay="0.00" arrival="355.00" arrivalLane="oN_0" arrivalPos="995.25" arrivalSpeed="13.87" duration="193.00" routeLength="1994.90" waitSteps="21" timeLoss="48.90" rerouteNo="0" devices="tripinfo_down_76" vType="typeNS" speedFactor="1.00" vaporized=""/>
    <tripinfo id="down_71" depart="152.00" departLane="iN_0" departPos="5.10" departSpeed="0.00" departDelay="5.00" arrival="355.00" arrivalLane="oS_0" arrivalPos="995.25" arrivalSpeed="13.60" duration="203.00" routeLength="1994.90" waitSteps="34" timeLoss="58.86" rerouteNo="0" devices="tripinfo_down_71" vType="typeNS" speedFactor="1.00" vaporized=""/>
    <tripinfo id="down_81" depart="169.00" departLane="iS_0" departPos="5.10" departSpeed="0.00" departDelay="0.00" arrival="357.00" arrivalLane="oN_0" arrivalPos="995.25" arrivalSpeed="13.58" duration="188.00" routeLength="1994.90" waitSteps="17" timeLoss="43.52" rerouteNo="0" devices="tripinfo_down_81" vType="typeNS" speedFactor="1.00" vaporized=""/>