<?xml version="1.0" encoding="UTF-8"?>

<!-- generated on Wed  8 Aug 17:15:14 2018 by SUMO gui Version 0.32.0
<?xml version="1.0" encoding="UTF-8"?>

<configuration xmlns:xsi="http://www.w3.org/2001/XMLSchema-instance" xsi:noNamespaceSchemaLocation="http://sumo.dlr.de/xsd/sumoConfiguration.xsd">

    <input>
        <net-file value="/Users/acabrejasegea/sumo-0.32/Data/Networks/cross_straight_random/cross_straight_random.net.xml"/>
        <route-files value="/Users/acabrejasegea/sumo-0.32/Data/Networks/cross_straight_random/cross_straight_random.trips.xml"/>
        <additional-files value="/Users/acabrejasegea/sumo-0.32/Data/Networks/cross_straight_random/cross_straight_random.add.xml"/>
    </input>

    <output>
        <tripinfo-output value="BasicQ_cross_straight_random_out/tripinfo.xml"/>
    </output>

    <time>
        <begin value="0"/>
    </time>

    <report>
        <verbose value="true"/>
        <no-step-log value="true"/>
    </report>

    <traci_server>
        <remote-port value="50247"/>
    </traci_server>

</configuration>
-->

<tripinfos xmlns:xsi="http://www.w3.org/2001/XMLSchema-instance" xsi:noNamespaceSchemaLocation="http://sumo.dlr.de/xsd/tripinfo_file.xsd">
    <tripinfo id="7" depart="7.00" departLane="-gneE3_0" departPos="5.10" departSpeed="0.00" departDelay="0.00" arrival="86.00" arrivalLane="-gneE2_0" arrivalPos="495.25" arrivalSpeed="13.02" duration="79.00" routeLength="994.90" waitSteps="0" timeLoss="6.45" rerouteNo="0" devices="tripinfo_7" vType="DEFAULT_VEHTYPE" speedFactor="1.00" vaporized=""/>
    <tripinfo id="13" depart="13.00" departLane="gneE2_0" departPos="5.10" departSpeed="0.00" departDelay="0.00" arrival="91.00" arrivalLane="gneE3_0" arrivalPos="495.25" arrivalSpeed="12.95" duration="78.00" routeLength="994.90" waitSteps="0" timeLoss="5.86" rerouteNo="0" devices="tripinfo_13" vType="DEFAULT_VEHTYPE" speedFactor="1.00" vaporized=""/>
    <tripinfo id="19" depart="19.00" departLane="gneE2_0" departPos="5.10" departSpeed="0.00" departDelay="0.00" arrival="98.00" arrivalLane="gneE3_0" arrivalPos="495.25" arrivalSpeed="13.85" duration="79.00" routeLength="994.90" waitSteps="0" timeLoss="7.08" rerouteNo="0" devices="tripinfo_19" vType="DEFAULT_VEHTYPE" speedFactor="1.00" vaporized=""/>
    <tripinfo id="6" depart="6.00" departLane="-gneE1_0" departPos="5.10" departSpeed="0.00" departDelay="0.00" arrival="121.00" arrivalLane="-gneE0_0" arrivalPos="495.25" arrivalSpeed="13.10" duration="115.00" routeLength="994.90" waitSteps="32" timeLoss="42.61" rerouteNo="0" devices="tripinfo_6" vType="DEFAULT_VEHTYPE" speedFactor="1.00" vaporized=""/>
    <tripinfo id="20" depart="20.00" departLane="gneE0_0" departPos="5.10" departSpeed="0.00" departDelay="0.00" arrival="121.00" arrivalLane="gneE1_0" arrivalPos="495.25" arrivalSpeed="13.50" duration="101.00" routeLength="994.90" waitSteps="17" timeLoss="28.46" rerouteNo="0" devices="tripinfo_20" vType="DEFAULT_VEHTYPE" speedFactor="1.00" vaporized=""/>
    <tripinfo id="15" depart="15.00" departLane="-gneE1_0" departPos="5.10" departSpeed="0.00" departDelay="0.00" arrival="123.00" arrivalLane="-gneE0_0" arrivalPos="495.25" arrivalSpeed="13.38" duration="108.00" routeLength="994.90" waitSteps="22" timeLoss="35.57" rerouteNo="0" devices="tripinfo_15" vType="DEFAULT_VEHTYPE" speedFactor="1.00" vaporized=""/>
    <tripinfo id="21" depart="23.00" departLane="gneE0_0" departPos="5.10" departSpeed="0.00" departDelay="2.00" arrival="123.00" arrivalLane="gneE1_0" arrivalPos="495.25" arrivalSpeed="13.46" duration="100.00" routeLength="994.90" waitSteps="13" timeLoss="27.74" rerouteNo="0" devices="tripinfo_21" vType="DEFAULT_VEHTYPE" speedFactor="1.00" vaporized=""/>
    <tripinfo id="18" depart="18.00" departLane="-gneE1_0" departPos="5.10" departSpeed="0.00" departDelay="0.00" arrival="124.00" arrivalLane="-gneE0_0" arrivalPos="495.25" arrivalSpeed="13.82" duration="106.00" routeLength="994.90" waitSteps="21" timeLoss="34.30" rerouteNo="0" devices="tripinfo_18" vType="DEFAULT_VEHTYPE" speedFactor="1.00" vaporized=""/>
    <tripinfo id="24" depart="26.00" departLane="gneE0_0" departPos="5.10" departSpeed="0.00" departDelay="2.00" arrival="125.00" arrivalLane="gneE1_0" arrivalPos="495.25" arrivalSpeed="13.88" duration="99.00" routeLength="994.90" waitSteps="12" timeLoss="26.62" rerouteNo="0" devices="tripinfo_24" vType="DEFAULT_VEHTYPE" speedFactor="1.00" vaporized=""/>
    <tripinfo id="45" depart="45.00" departLane="gneE2_0" departPos="5.10" departSpeed="0.00" departDelay="0.00" arrival="130.00" arrivalLane="gneE3_0" arrivalPos="495.25" arrivalSpeed="12.83" duration="85.00" routeLength="994.90" waitSteps="0" timeLoss="13.34" rerouteNo="0" devices="tripinfo_45" vType="DEFAULT_VEHTYPE" speedFactor="1.00" vaporized=""/>
    <tripinfo id="39" depart="39.00" departLane="-gneE3_0" departPos="5.10" departSpeed="0.00" departDelay="0.00" arrival="131.00" arrivalLane="-gneE2_0" arrivalPos="495.25" arrivalSpeed="13.82" duration="92.00" routeLength="994.90" waitSteps="8" timeLoss="19.68" rerouteNo="0" devices="tripinfo_39" vType="DEFAULT_VEHTYPE" speedFactor="1.00" vaporized=""/>
    <tripinfo id="53" depart="53.00" departLane="gneE2_0" departPos="5.10" departSpeed="0.00" departDelay="0.00" arrival="132.00" arrivalLane="gneE3_0" arrivalPos="495.25" arrivalSpeed="12.94" duration="79.00" routeLength="994.90" waitSteps="0" timeLoss="7.15" rerouteNo="0" devices="tripinfo_53" vType="DEFAULT_VEHTYPE" speedFactor="1.00" vaporized=""/>
    <tripinfo id="47" depart="47.00" departLane="-gneE3_0" departPos="5.10" departSpeed="0.00" departDelay="0.00" arrival="133.00" arrivalLane="-gneE2_0" arrivalPos="495.25" arrivalSpeed="12.84" duration="86.00" routeLength="994.90" waitSteps="0" timeLoss="13.66" rerouteNo="0" devices="tripinfo_47" vType="DEFAULT_VEHTYPE" speedFactor="1.00" vaporized=""/>
    <tripinfo id="59" depart="59.00" departLane="gneE2_0" departPos="5.10" departSpeed="0.00" departDelay="0.00" arrival="137.00" arrivalLane="gneE3_0" arrivalPos="495.25" arrivalSpeed="12.71" duration="78.00" routeLength="994.90" waitSteps="0" timeLoss="5.97" rerouteNo="0" devices="tripinfo_59" vType="DEFAULT_VEHTYPE" speedFactor="1.00" vaporized=""/>
    <tripinfo id="66" depart="66.00" departLane="gneE2_0" departPos="5.10" departSpeed="0.00" departDelay="0.00" arrival="145.00" arrivalLane="gneE3_0" arrivalPos="495.25" arrivalSpeed="13.48" duration="79.00" routeLength="994.90" waitSteps="0" timeLoss="6.52" rerouteNo="0" devices="tripinfo_66" vType="DEFAULT_VEHTYPE" speedFactor="1.00" vaporized=""/>
    <tripinfo id="84" depart="84.00" departLane="-gneE3_0" departPos="5.10" departSpeed="0.00" departDelay="0.00" arrival="162.00" arrivalLane="-gneE2_0" arrivalPos="495.25" arrivalSpeed="13.09" duration="78.00" routeLength="994.90" waitSteps="0" timeLoss="6.26" rerouteNo="0" devices="tripinfo_84" vType="DEFAULT_VEHTYPE" speedFactor="1.00" vaporized=""/>
    <tripinfo id="98" depart="98.00" departLane="-gneE3_0" departPos="5.10" departSpeed="0.00" departDelay="0.00" arrival="176.00" arrivalLane="-gneE2_0" arrivalPos="495.25" arrivalSpeed="13.61" duration="78.00" routeLength="994.90" waitSteps="0" timeLoss="5.79" rerouteNo="0" devices="tripinfo_98" vType="DEFAULT_VEHTYPE" speedFactor="1.00" vaporized=""/>
    <tripinfo id="103" depart="103.00" departLane="-gneE3_0" departPos="5.10" departSpeed="0.00" departDelay="0.00" arrival="181.00" arrivalLane="-gneE2_0" arrivalPos="495.25" arrivalSpeed="13.86" duration="78.00" routeLength="994.90" waitSteps="0" timeLoss="6.07" rerouteNo="0" devices="tripinfo_103" vType="DEFAULT_VEHTYPE" speedFactor="1.00" vaporized=""/>
    <tripinfo id="106" depart="106.00" departLane="gneE2_0" departPos="5.10" departSpeed="0.00" departDelay="0.00" arrival="184.00" arrivalLane="gneE3_0" arrivalPos="495.25" arrivalSpeed="13.87" duration="78.00" routeLength="994.90" waitSteps="0" timeLoss="6.11" rerouteNo="0" devices="tripinfo_106" vType="DEFAULT_VEHTYPE" speedFactor="1.00" vaporized=""/>
    <tripinfo id="109" depart="109.00" departLane="gneE2_0" departPos="5.10" departSpeed="0.00" departDelay="0.00" arrival="188.00" arrivalLane="gneE3_0" arrivalPos="495.25" arrivalSpeed="13.12" duration="79.00" routeLength="994.90" waitSteps="0" timeLoss="6.94" rerouteNo="0" devices="tripinfo_109" vType="DEFAULT_VEHTYPE" speedFactor="1.00" vaporized=""/>
    <tripinfo id="116" depart="116.00" departLane="-gneE3_0" departPos="5.10" departSpeed="0.00" departDelay="0.00" arrival="194.00" arrivalLane="-gneE2_0" arrivalPos="495.25" arrivalSpeed="13.58" duration="78.00" routeLength="994.90" waitSteps="0" timeLoss="5.71" rerouteNo="0" devices="tripinfo_116" vType="DEFAULT_VEHTYPE" speedFactor="1.00" vaporized=""/>
    <tripinfo id="42" depart="42.00" departLane="-gneE1_0" departPos="5.10" departSpeed="0.00" departDelay="0.00" arrival="203.00" arrivalLane="-gneE0_0" arrivalPos="495.25" arrivalSpeed="12.89" duration="161.00" routeLength="994.90" waitSteps="73" timeLoss="89.35" rerouteNo="0" devices="tripinfo_42" vType="DEFAULT_VEHTYPE" speedFactor="1.00" vaporized=""/>
    <tripinfo id="38" depart="38.00" departLane="gneE0_0" departPos="5.10" departSpeed="0.00" departDelay="0.00" arrival="203.00" arrivalLane="gneE1_0" arrivalPos="495.25" arrivalSpeed="13.47" duration="165.00" routeLength="994.90" waitSteps="74" timeLoss="92.87" rerouteNo="0" devices="tripinfo_38" vType="DEFAULT_VEHTYPE" speedFactor="1.00" vaporized=""/>
    <tripinfo id="58" depart="58.00" departLane="gneE0_0" departPos="5.10" departSpeed="0.00" departDelay="0.00" arrival="205.00" arrivalLane="gneE1_0" arrivalPos="495.25" arrivalSpeed="13.02" duration="147.00" routeLength="994.90" waitSteps="62" timeLoss="75.16" rerouteNo="0" devices="tripinfo_58" vType="DEFAULT_VEHTYPE" speedFactor="1.00" vaporized=""/>
    <tripinfo id="48" depart="48.00" departLane="-gneE1_0" departPos="5.10" departSpeed="0.00" departDelay="0.00" arrival="206.00" arrivalLane="-gneE0_0" arrivalPos="495.25" arrivalSpeed="13.32" duration="158.00" routeLength="994.90" waitSteps="71" timeLoss="85.77" rerouteNo="0" devices="tripinfo_48" vType="DEFAULT_VEHTYPE" speedFactor="1.00" vaporized=""/>
    <tripinfo id="71" depart="71.00" departLane="gneE0_0" departPos="5.10" departSpeed="0.00" departDelay="0.00" arrival="207.00" arrivalLane="gneE1_0" arrivalPos="495.25" arrivalSpeed="12.93" duration="136.00" routeLength="994.90" waitSteps="51" timeLoss="64.23" rerouteNo="0" devices="tripinfo_71" vType="DEFAULT_VEHTYPE" speedFactor="1.00" vaporized=""/>
    <tripinfo id="49" depart="51.00" departLane="-gneE1_0" departPos="5.10" departSpeed="0.00" departDelay="2.00" arrival="208.00" arrivalLane="-gneE0_0" arrivalPos="495.25" arrivalSpeed="13.75" duration="157.00" routeLength="994.90" waitSteps="71" timeLoss="84.59" rerouteNo="0" devices="tripinfo_49" vType="DEFAULT_VEHTYPE" speedFactor="1.00" vaporized=""/>
    <tripinfo id="102" depart="102.00" departLane="gneE0_0" departPos="5.10" departSpeed="0.00" departDelay="0.00" arrival="209.00" arrivalLane="gneE1_0" arrivalPos="495.25" arrivalSpeed="13.81" duration="107.00" routeLength="994.90" waitSteps="23" timeLoss="34.96" rerouteNo="0" devices="tripinfo_102" vType="DEFAULT_VEHTYPE" speedFactor="1.00" vaporized=""/>
    <tripinfo id="80" depart="80.00" departLane="-gneE1_0" departPos="5.10" departSpeed="0.00" departDelay="0.00" arrival="210.00" arrivalLane="-gneE0_0" arrivalPos="495.25" arrivalSpeed="13.86" duration="130.00" routeLength="994.90" waitSteps="44" timeLoss="57.45" rerouteNo="0" devices="tripinfo_80" vType="DEFAULT_VEHTYPE" speedFactor="1.00" vaporized=""/>
    <tripinfo id="81" depart="83.00" departLane="-gneE1_0" departPos="5.10" departSpeed="0.00" departDelay="2.00" arrival="212.00" arrivalLane="-gneE0_0" arrivalPos="495.25" arrivalSpeed="13.69" duration="129.00" routeLength="994.90" waitSteps="43" timeLoss="56.67" rerouteNo="0" devices="tripinfo_81" vType="DEFAULT_VEHTYPE" speedFactor="1.00" vaporized=""/>
    <tripinfo id="88" depart="88.00" departLane="-gneE1_0" departPos="5.10" departSpeed="0.00" departDelay="0.00" arrival="214.00" arrivalLane="-gneE0_0" arrivalPos="495.25" arrivalSpeed="13.64" duration="126.00" routeLength="994.90" waitSteps="39" timeLoss="53.45" rerouteNo="0" devices="tripinfo_88" vType="DEFAULT_VEHTYPE" speedFactor="1.00" vaporized=""/>
    <tripinfo id="124" depart="124.00" departLane="gneE2_0" departPos="5.10" departSpeed="0.00" departDelay="0.00" arrival="220.00" arrivalLane="gneE3_0" arrivalPos="495.25" arrivalSpeed="12.60" duration="96.00" routeLength="994.90" waitSteps="12" timeLoss="24.31" rerouteNo="0" devices="tripinfo_124" vType="DEFAULT_VEHTYPE" speedFactor="1.00" vaporized=""/>
    <tripinfo id="123" depart="123.00" departLane="-gneE3_0" departPos="5.10" departSpeed="0.00" departDelay="0.00" arrival="221.00" arrivalLane="-gneE2_0" arrivalPos="495.25" arrivalSpeed="12.85" duration="98.00" routeLength="994.90" waitSteps="15" timeLoss="25.49" rerouteNo="0" devices="tripinfo_123" vType="DEFAULT_VEHTYPE" speedFactor="1.00" vaporized=""/>
    <tripinfo id="136" depart="136.00" departLane="-gneE3_0" departPos="5.10" departSpeed="0.00" departDelay="0.00" arrival="223.00" arrivalLane="-gneE2_0" arrivalPos="495.25" arrivalSpeed="12.61" duration="87.00" routeLength="994.90" waitSteps="1" timeLoss="14.67" rerouteNo="0" devices="tripinfo_136" vType="DEFAULT_VEHTYPE" speedFactor="1.00" vaporized=""/>
    <tripinfo id="139" depart="139.00" departLane="-gneE3_0" departPos="5.10" departSpeed="0.00" departDelay="0.00" arrival="225.00" arrivalLane="-gneE2_0" arrivalPos="495.25" arrivalSpeed="13.29" duration="86.00" routeLength="994.90" waitSteps="1" timeLoss="13.43" rerouteNo="0" devices="tripinfo_139" vType="DEFAULT_VEHTYPE" speedFactor="1.00" vaporized=""/>
    <tripinfo id="148" depart="148.00" departLane="gneE2_0" departPos="5.10" departSpeed="0.00" departDelay="0.00" arrival="227.00" arrivalLane="gneE3_0" arrivalPos="495.25" arrivalSpeed="13.75" duration="79.00" routeLength="994.90" waitSteps="0" timeLoss="6.54" rerouteNo="0" devices="tripinfo_148" vType="DEFAULT_VEHTYPE" speedFactor="1.00" vaporized=""/>
    <tripinfo id="168" depart="168.00" departLane="-gneE3_0" departPos="5.10" departSpeed="0.00" departDelay="0.00" arrival="247.00" arrivalLane="-gneE2_0" arrivalPos="495.25" arrivalSpeed="13.56" duration="79.00" routeLength="994.90" waitSteps="0" timeLoss="6.72" rerouteNo="0" devices="tripinfo_168" vType="DEFAULT_VEHTYPE" speedFactor="1.00" vaporized=""/>
    <tripinfo id="169" depart="169.00" departLane="gneE2_0" departPos="5.10" departSpeed="0.00" departDelay="0.00" arrival="247.00" arrivalLane="gneE3_0" arrivalPos="495.25" arrivalSpeed="13.07" duration="78.00" routeLength="994.90" waitSteps="0" timeLoss="6.23" rerouteNo="0" devices="tripinfo_169" vType="DEFAULT_VEHTYPE" speedFactor="1.00" vaporized=""/>
    <tripinfo id="170" depart="171.00" departLane="-gneE3_0" departPos="5.10" departSpeed="0.00" departDelay="1.00" arrival="250.00" arrivalLane="-gneE2_0" arrivalPos="495.25" arrivalSpeed="13.23" duration="79.00" routeLength="994.90" waitSteps="0" timeLoss="6.68" rerouteNo="0" devices="tripinfo_170" vType="DEFAULT_VEHTYPE" speedFactor="1.00" vaporized=""/>
    <tripinfo id="171" depart="172.00" departLane="gneE2_0" departPos="5.10" departSpeed="0.00" departDelay="1.00" arrival="250.00" arrivalLane="gneE3_0" arrivalPos="495.25" arrivalSpeed="12.70" duration="78.00" routeLength="994.90" waitSteps="0" timeLoss="6.01" rerouteNo="0" devices="tripinfo_171" vType="DEFAULT_VEHTYPE" speedFactor="1.00" vaporized=""/>
    <tripinfo id="179" depart="179.00" departLane="gneE2_0" departPos="5.10" departSpeed="0.00" departDelay="0.00" arrival="258.00" arrivalLane="gneE3_0" arrivalPos="495.25" arrivalSpeed="12.99" duration="79.00" routeLength="994.90" waitSteps="0" timeLoss="7.02" rerouteNo="0" devices="tripinfo_179" vType="DEFAULT_VEHTYPE" speedFactor="1.00" vaporized=""/>
    <tripinfo id="191" depart="191.00" departLane="-gneE3_0" departPos="5.10" departSpeed="0.00" departDelay="0.00" arrival="270.00" arrivalLane="-gneE2_0" arrivalPos="495.25" arrivalSpeed="13.20" duration="79.00" routeLength="994.90" waitSteps="0" timeLoss="7.06" rerouteNo="0" devices="tripinfo_191" vType="DEFAULT_VEHTYPE" speedFactor="1.00" vaporized=""/>
    <tripinfo id="195" depart="195.00" departLane="gneE2_0" departPos="5.10" departSpeed="0.00" departDelay="0.00" arrival="274.00" arrivalLane="gneE3_0" arrivalPos="495.25" arrivalSpeed="13.08" duration="79.00" routeLength="994.90" waitSteps="0" timeLoss="6.55" rerouteNo="0" devices="tripinfo_195" vType="DEFAULT_VEHTYPE" speedFactor="1.00" vaporized=""/>
    <tripinfo id="162" depart="162.00" departLane="gneE0_0" departPos="5.10" departSpeed="0.00" departDelay="0.00" arrival="286.00" arrivalLane="gneE1_0" arrivalPos="495.25" arrivalSpeed="13.55" duration="124.00" routeLength="994.90" waitSteps="41" timeLoss="52.31" rerouteNo="0" devices="tripinfo_162" vType="DEFAULT_VEHTYPE" speedFactor="1.00" vaporized=""/>
    <tripinfo id="96" depart="96.00" departLane="-gneE1_0" departPos="5.10" departSpeed="0.00" departDelay="0.00" arrival="287.00" arrivalLane="-gneE0_0" arrivalPos="495.25" arrivalSpeed="12.91" duration="191.00" routeLength="994.90" waitSteps="99" timeLoss="118.56" rerouteNo="0" devices="tripinfo_96" vType="DEFAULT_VEHTYPE" speedFactor="1.00" vaporized=""/>
    <tripinfo id="100" depart="100.00" departLane="-gneE1_0" departPos="5.10" departSpeed="0.00" departDelay="0.00" arrival="289.00" arrivalLane="-gneE0_0" arrivalPos="495.25" arrivalSpeed="12.63" duration="189.00" routeLength="994.90" waitSteps="96" timeLoss="116.77" rerouteNo="0" devices="tripinfo_100" vType="DEFAULT_VEHTYPE" speedFactor="1.00" vaporized=""/>
    <tripinfo id="196" depart="196.00" departLane="gneE0_0" departPos="5.10" departSpeed="0.00" departDelay="0.00" arrival="289.00" arrivalLane="gneE1_0" arrivalPos="495.25" arrivalSpeed="12.87" duration="93.00" routeLength="994.90" waitSteps="9" timeLoss="20.64" rerouteNo="0" devices="tripinfo_196" vType="DEFAULT_VEHTYPE" speedFactor="1.00" vaporized=""/>
    <tripinfo id="154" depart="154.00" departLane="-gneE1_0" departPos="5.10" departSpeed="0.00" departDelay="0.00" arrival="291.00" arrivalLane="-gneE0_0" arrivalPos="495.25" arrivalSpeed="13.83" duration="137.00" routeLength="994.90" waitSteps="52" timeLoss="64.60" rerouteNo="0" devices="tripinfo_154" vType="DEFAULT_VEHTYPE" speedFactor="1.00" vaporized=""/>
    <tripinfo id="178" depart="178.00" departLane="-gneE1_0" departPos="5.10" departSpeed="0.00" departDelay="0.00" arrival="292.00" arrivalLane="-gneE0_0" arrivalPos="495.25" arrivalSpeed="12.74" duration="114.00" routeLength="994.90" waitSteps="29" timeLoss="42.38" rerouteNo="0" devices="tripinfo_178" vType="DEFAULT_VEHTYPE" speedFactor="1.00" vaporized=""/>
    <tripinfo id="213" depart="213.00" departLane="gneE0_0" departPos="5.10" departSpeed="0.00" departDelay="0.00" arrival="292.00" arrivalLane="gneE1_0" arrivalPos="495.25" arrivalSpeed="12.66" duration="79.00" routeLength="994.90" waitSteps="0" timeLoss="7.35" rerouteNo="0" devices="tripinfo_213" vType="DEFAULT_VEHTYPE" speedFactor="1.00" vaporized=""/>
    <tripinfo id="180" depart="181.00" departLane="-gneE1_0" departPos="5.10" departSpeed="0.00" departDelay="1.00" arrival="294.00" arrivalLane="-gneE0_0" arrivalPos="495.25" arrivalSpeed="13.66" duration="113.00" routeLength="994.90" waitSteps="27" timeLoss="41.23" rerouteNo="0" devices="tripinfo_180" vType="DEFAULT_VEHTYPE" speedFactor="1.00" vaporized=""/>
    <tripinfo id="216" depart="216.00" departLane="gneE0_0" departPos="5.10" departSpeed="0.00" departDelay="0.00" arrival="295.00" arrivalLane="gneE1_0" arrivalPos="495.25" arrivalSpeed="13.86" duration="79.00" routeLength="994.90" waitSteps="0" timeLoss="6.54" rerouteNo="0" devices="tripinfo_216" vType="DEFAULT_VEHTYPE" speedFactor="1.00" vaporized=""/>
    <tripinfo id="181" depart="184.00" departLane="-gneE1_0" departPos="5.10" departSpeed="0.00" departDelay="3.00" arrival="296.00" arrivalLane="-gneE0_0" arrivalPos="495.25" arrivalSpeed="12.92" duration="112.00" routeLength="994.90" waitSteps="26" timeLoss="40.08" rerouteNo="0" devices="tripinfo_181" vType="DEFAULT_VEHTYPE" speedFactor="1.00" vaporized=""/>
    <tripinfo id="209" depart="209.00" departLane="-gneE1_0" departPos="5.10" departSpeed="0.00" departDelay="0.00" arrival="298.00" arrivalLane="-gneE0_0" arrivalPos="495.25" arrivalSpeed="13.28" duration="89.00" routeLength="994.90" waitSteps="2" timeLoss="16.85" rerouteNo="0" devices="tripinfo_209" vType="DEFAULT_VEHTYPE" speedFactor="1.00" vaporized=""/>
    <tripinfo id="210" depart="210.00" departLane="gneE2_0" departPos="5.10" departSpeed="0.00" departDelay="0.00" arrival="310.00" arrivalLane="gneE3_0" arrivalPos="495.25" arrivalSpeed="13.47" duration="100.00" routeLength="994.90" waitSteps="17" timeLoss="28.34" rerouteNo="0" devices="tripinfo_210" vType="DEFAULT_VEHTYPE" speedFactor="1.00" vaporized=""/>
    <tripinfo id="211" depart="211.00" departLane="-gneE3_0" departPos="5.10" departSpeed="0.00" departDelay="0.00" arrival="311.00" arrivalLane="-gneE2_0" arrivalPos="495.25" arrivalSpeed="13.15" duration="100.00" routeLength="994.90" waitSteps="16" timeLoss="27.67" rerouteNo="0" devices="tripinfo_211" vType="DEFAULT_VEHTYPE" speedFactor="1.00" vaporized=""/>
    <tripinfo id="233" depart="233.00" departLane="gneE2_0" departPos="5.10" departSpeed="0.00" departDelay="0.00" arrival="312.00" arrivalLane="gneE3_0" arrivalPos="495.25" arrivalSpeed="13.79" duration="79.00" routeLength="994.90" waitSteps="0" timeLoss="7.27" rerouteNo="0" devices="tripinfo_233" vType="DEFAULT_VEHTYPE" speedFactor="1.00" vaporized=""/>
    <tripinfo id="226" depart="226.00" departLane="-gneE3_0" departPos="5.10" departSpeed="0.00" departDelay="0.00" arrival="313.00" arrivalLane="-gneE2_0" arrivalPos="495.25" arrivalSpeed="13.48" duration="87.00" routeLength="994.90" waitSteps="1" timeLoss="14.45" rerouteNo="0" devices="tripinfo_226" vType="DEFAULT_VEHTYPE" speedFactor="1.00" vaporized=""/>
    <tripinfo id="234" depart="234.00" departLane="-gneE3_0" departPos="5.10" departSpeed="0.00" departDelay="0.00" arrival="314.00" arrivalLane="-gneE2_0" arrivalPos="495.25" arrivalSpeed="13.16" duration="80.00" routeLength="994.90" waitSteps="0" timeLoss="8.30" rerouteNo="0" devices="tripinfo_234" vType="DEFAULT_VEHTYPE" speedFactor="1.00" vaporized=""/>
    <tripinfo id="237" depart="237.00" departLane="gneE2_0" departPos="5.10" departSpeed="0.00" departDelay="0.00" arrival="316.00" arrivalLane="gneE3_0" arrivalPos="495.25" arrivalSpeed="13.28" duration="79.00" routeLength="994.90" waitSteps="0" timeLoss="6.85" rerouteNo="0" devices="tripinfo_237" vType="DEFAULT_VEHTYPE" speedFactor="1.00" vaporized=""/>
    <tripinfo id="236" depart="237.00" departLane="-gneE3_0" departPos="5.10" departSpeed="0.00" departDelay="1.00" arrival="316.00" arrivalLane="-gneE2_0" arrivalPos="495.25" arrivalSpeed="12.77" duration="79.00" routeLength="994.90" waitSteps="0" timeLoss="7.12" rerouteNo="0" devices="tripinfo_236" vType="DEFAULT_VEHTYPE" speedFactor="1.00" vaporized=""/>
    <tripinfo id="239" depart="240.00" departLane="gneE2_0" departPos="5.10" departSpeed="0.00" departDelay="1.00" arrival="318.00" arrivalLane="gneE3_0" arrivalPos="495.25" arrivalSpeed="13.26" duration="78.00" routeLength="994.90" waitSteps="0" timeLoss="6.10" rerouteNo="0" devices="tripinfo_239" vType="DEFAULT_VEHTYPE" speedFactor="1.00" vaporized=""/>
    <tripinfo id="243" depart="243.00" departLane="-gneE3_0" departPos="5.10" departSpeed="0.00" departDelay="0.00" arrival="321.00" arrivalLane="-gneE2_0" arrivalPos="495.25" arrivalSpeed="13.72" duration="78.00" routeLength="994.90" waitSteps="0" timeLoss="6.26" rerouteNo="0" devices="tripinfo_243" vType="DEFAULT_VEHTYPE" speedFactor="1.00" vaporized=""/>
    <tripinfo id="252" depart="252.00" departLane="-gneE3_0" departPos="5.10" departSpeed="0.00" departDelay="0.00" arrival="331.00" arrivalLane="-gneE2_0" arrivalPos="495.25" arrivalSpeed="13.33" duration="79.00" routeLength="994.90" waitSteps="0" timeLoss="6.72" rerouteNo="0" devices="tripinfo_252" vType="DEFAULT_VEHTYPE" speedFactor="1.00" vaporized=""/>
    <tripinfo id="254" depart="255.00" departLane="-gneE3_0" departPos="5.10" departSpeed="0.00" departDelay="1.00" arrival="334.00" arrivalLane="-gneE2_0" arrivalPos="495.25" arrivalSpeed="13.42" duration="79.00" routeLength="994.90" waitSteps="0" timeLoss="6.84" rerouteNo="0" devices="tripinfo_254" vType="DEFAULT_VEHTYPE" speedFactor="1.00" vaporized=""/>
    <tripinfo id="256" depart="258.00" departLane="-gneE3_0" departPos="5.10" departSpeed="0.00" departDelay="2.00" arrival="337.00" arrivalLane="-gneE2_0" arrivalPos="495.25" arrivalSpeed="13.52" duration="79.00" routeLength="994.90" waitSteps="0" timeLoss="6.79" rerouteNo="0" devices="tripinfo_256" vType="DEFAULT_VEHTYPE" speedFactor="1.00" vaporized=""/>
    <tripinfo id="262" depart="262.00" departLane="gneE2_0" departPos="5.10" departSpeed="0.00" departDelay="0.00" arrival="341.00" arrivalLane="gneE3_0" arrivalPos="495.25" arrivalSpeed="13.15" duration="79.00" routeLength="994.90" waitSteps="0" timeLoss="6.84" rerouteNo="0" devices="tripinfo_262" vType="DEFAULT_VEHTYPE" speedFactor="1.00" vaporized=""/>
    <tripinfo id="266" depart="266.00" departLane="-gneE3_0" departPos="5.10" departSpeed="0.00" departDelay="0.00" arrival="345.00" arrivalLane="-gneE2_0" arrivalPos="495.25" arrivalSpeed="12.78" duration="79.00" routeLength="994.90" waitSteps="0" timeLoss="6.50" rerouteNo="0" devices="tripinfo_266" vType="DEFAULT_VEHTYPE" speedFactor="1.00" vaporized=""/>
    <tripinfo id="268" depart="269.00" departLane="-gneE3_0" departPos="5.10" departSpeed="0.00" departDelay="1.00" arrival="348.00" arrivalLane="-gneE2_0" arrivalPos="495.25" arrivalSpeed="13.37" duration="79.00" routeLength="994.90" waitSteps="0" timeLoss="6.66" rerouteNo="0" devices="tripinfo_268" vType="DEFAULT_VEHTYPE" speedFactor="1.00" vaporized=""/>
    <tripinfo id="276" depart="276.00" departLane="-gneE3_0" departPos="5.10" departSpeed="0.00" departDelay="0.00" arrival="354.00" arrivalLane="-gneE2_0" arrivalPos="495.25" arrivalSpeed="13.41" duration="78.00" routeLength="994.90" waitSteps="0" timeLoss="6.23" rerouteNo="0" devices="tripinfo_276" vType="DEFAULT_VEHTYPE" speedFactor="1.00" vaporized=""/>
    <tripinfo id="280" depart="280.00" departLane="-gneE3_0" departPos="5.10" departSpeed="0.00" departDelay="0.00" arrival="359.00" arrivalLane="-gneE2_0" arrivalPos="495.25" arrivalSpeed="13.57" duration="79.00" routeLength="994.90" waitSteps="0" timeLoss="6.78" rerouteNo="0" devices="tripinfo_280" vType="DEFAULT_VEHTYPE" speedFactor="1.00" vaporized=""/>
    <tripinfo id="286" depart="286.00" departLane="-gneE3_0" departPos="5.10" departSpeed="0.00" departDelay="0.00" arrival="365.00" arrivalLane="-gneE2_0" arrivalPos="495.25" arrivalSpeed="13.48" duration="79.00" routeLength="994.90" waitSteps="0" timeLoss="6.95" rerouteNo="0" devices="tripinfo_286" vType="DEFAULT_VEHTYPE" speedFactor="1.00" vaporized=""/>
    <tripinfo id="246" depart="246.00" departLane="gneE0_0" departPos="5.10" departSpeed="0.00" departDelay="0.00" arrival="370.00" arrivalLane="gneE1_0" arrivalPos="495.25" arrivalSpeed="12.64" duration="124.00" routeLength="994.90" waitSteps="40" timeLoss="51.94" rerouteNo="0" devices="tripinfo_246" vType="DEFAULT_VEHTYPE" speedFactor="1.00" vaporized=""/>
    <tripinfo id="293" depart="293.00" departLane="-gneE1_0" departPos="5.10" departSpeed="0.00" departDelay="0.00" arrival="371.00" arrivalLane="-gneE0_0" arrivalPos="495.25" arrivalSpeed="13.76" duration="78.00" routeLength="994.90" waitSteps="0" timeLoss="6.33" rerouteNo="0" devices="tripinfo_293" vType="DEFAULT_VEHTYPE" speedFactor="1.00" vaporized=""/>
    <tripinfo id="260" depart="260.00" departLane="gneE0_0" departPos="5.10" departSpeed="0.00" departDelay="0.00" arrival="372.00" arrivalLane="gneE1_0" arrivalPos="495.25" arrivalSpeed="13.03" duration="112.00" routeLength="994.90" waitSteps="27" timeLoss="39.72" rerouteNo="0" devices="tripinfo_260" vType="DEFAULT_VEHTYPE" speedFactor="1.00" vaporized=""/>
    <tripinfo id="274" depart="274.00" departLane="gneE0_0" departPos="5.10" departSpeed="0.00" departDelay="0.00" arrival="374.00" arrivalLane="gneE1_0" arrivalPos="495.25" arrivalSpeed="13.35" duration="100.00" routeLength="994.90" waitSteps="15" timeLoss="27.61" rerouteNo="0" devices="tripinfo_274" vType="DEFAULT_VEHTYPE" speedFactor="1.00" vaporized=""/>
    <tripinfo id="308" depart="308.00" departLane="gneE0_0" departPos="5.10" departSpeed="0.00" departDelay="0.00" arrival="386.00" arrivalLane="gneE1_0" arrivalPos="495.25" arrivalSpeed="12.96" duration="78.00" routeLength="994.90" waitSteps="0" timeLoss="6.13" rerouteNo="0" devices="tripinfo_308" vType="DEFAULT_VEHTYPE" speedFactor="1.00" vaporized=""/>
    <tripinfo id="312" depart="312.00" departLane="gneE0_0" departPos="5.10" departSpeed="0.00" departDelay="0.00" arrival="390.00" arrivalLane="gneE1_0" arrivalPos="495.25" arrivalSpeed="13.31" duration="78.00" routeLength="994.90" waitSteps="0" timeLoss="5.96" rerouteNo="0" devices="tripinfo_312" vType="DEFAULT_VEHTYPE" speedFactor="1.00" vaporized=""/>
    <tripinfo id="289" depart="289.00" departLane="-gneE3_0" departPos="5.10" departSpeed="0.00" departDelay="0.00" arrival="401.00" arrivalLane="-gneE2_0" arrivalPos="495.25" arrivalSpeed="12.82" duration="112.00" routeLength="994.90" waitSteps="27" timeLoss="39.94" rerouteNo="0" devices="tripinfo_289" vType="DEFAULT_VEHTYPE" speedFactor="1.00" vaporized=""/>
    <tripinfo id="295" depart="295.00" departLane="gneE2_0" departPos="5.10" departSpeed="0.00" departDelay="0.00" arrival="401.00" arrivalLane="gneE3_0" arrivalPos="495.25" arrivalSpeed="12.63" duration="106.00" routeLength="994.90" waitSteps="22" timeLoss="33.69" rerouteNo="0" devices="tripinfo_295" vType="DEFAULT_VEHTYPE" speedFactor="1.00" vaporized=""/>