<?xml version="1.0" encoding="UTF-8"?>

<!-- generated on Wed 25 Jul 17:09:05 2018 by SUMO gui Version 0.32.0
<?xml version="1.0" encoding="UTF-8"?>

<configuration xmlns:xsi="http://www.w3.org/2001/XMLSchema-instance" xsi:noNamespaceSchemaLocation="http://sumo.dlr.de/xsd/sumoConfiguration.xsd">

    <input>
        <net-file value="/Users/acabrejasegea/sumo-0.32/Data/Networks/cross/cross.net.xml"/>
        <route-files value="/Users/acabrejasegea/sumo-0.32/Data/Networks/cross/cross.rou.xml"/>
        <additional-files value="/Users/acabrejasegea/sumo-0.32/Data/Networks/cross/cross.det.xml"/>
    </input>

    <output>
        <tripinfo-output value="BasicQ_cross_out/tripinfo.xml"/>
    </output>

    <time>
        <begin value="0"/>
    </time>

    <report>
        <verbose value="true"/>
        <no-step-log value="true"/>
    </report>

    <traci_server>
        <remote-port value="59768"/>
    </traci_server>

</configuration>
-->

<tripinfos xmlns:xsi="http://www.w3.org/2001/XMLSchema-instance" xsi:noNamespaceSchemaLocation="http://sumo.dlr.de/xsd/tripinfo_file.xsd">
    <tripinfo id="left_0" depart="0.00" departLane="52o_0" departPos="5.10" departSpeed="0.00" departDelay="0.00" arrival="91.00" arrivalLane="51i_0" arrivalPos="10.00" arrivalSpeed="11.51" duration="91.00" routeLength="1015.10" waitSteps="0" timeLoss="14.71" rerouteNo="0" devices="tripinfo_left_0" vType="typeWE" speedFactor="1.00" vaporized=""/>
    <tripinfo id="right_2" depart="3.00" departLane="51o_0" departPos="5.10" departSpeed="0.00" departDelay="0.00" arrival="94.00" arrivalLane="52i_0" arrivalPos="10.00" arrivalSpeed="11.82" duration="91.00" routeLength="1015.10" waitSteps="0" timeLoss="14.75" rerouteNo="0" devices="tripinfo_right_2" vType="typeWE" speedFactor="1.00" vaporized=""/>
    <tripinfo id="left_1" depart="5.00" departLane="52o_0" departPos="5.10" departSpeed="0.00" departDelay="3.00" arrival="96.00" arrivalLane="51i_0" arrivalPos="10.00" arrivalSpeed="11.53" duration="91.00" routeLength="1015.10" waitSteps="0" timeLoss="14.91" rerouteNo="0" devices="tripinfo_left_1" vType="typeWE" speedFactor="1.00" vaporized=""/>
    <tripinfo id="left_4" depart="10.00" departLane="52o_0" departPos="5.10" departSpeed="0.00" departDelay="0.00" arrival="102.00" arrivalLane="51i_0" arrivalPos="10.00" arrivalSpeed="11.30" duration="92.00" routeLength="1015.10" waitSteps="0" timeLoss="15.22" rerouteNo="0" devices="tripinfo_left_4" vType="typeWE" speedFactor="1.00" vaporized=""/>
    <tripinfo id="right_5" depart="11.00" departLane="51o_0" departPos="5.10" departSpeed="0.00" departDelay="0.00" arrival="102.00" arrivalLane="52i_0" arrivalPos="10.00" arrivalSpeed="11.69" duration="91.00" routeLength="1015.10" waitSteps="0" timeLoss="14.74" rerouteNo="0" devices="tripinfo_right_5" vType="typeWE" speedFactor="1.00" vaporized=""/>
    <tripinfo id="left_8" depart="22.00" departLane="52o_0" departPos="5.10" departSpeed="0.00" departDelay="0.00" arrival="113.00" arrivalLane="51i_0" arrivalPos="10.00" arrivalSpeed="11.29" duration="91.00" routeLength="1015.10" waitSteps="0" timeLoss="14.87" rerouteNo="0" devices="tripinfo_left_8" vType="typeWE" speedFactor="1.00" vaporized=""/>
    <tripinfo id="right_7" depart="22.00" departLane="51o_0" departPos="5.10" departSpeed="0.00" departDelay="0.00" arrival="113.00" arrivalLane="52i_0" arrivalPos="10.00" arrivalSpeed="11.41" duration="91.00" routeLength="1015.10" waitSteps="0" timeLoss="15.04" rerouteNo="0" devices="tripinfo_right_7" vType="typeWE" speedFactor="1.00" vaporized=""/>
    <tripinfo id="right_9" depart="27.00" departLane="51o_0" departPos="5.10" departSpeed="0.00" departDelay="2.00" arrival="118.00" arrivalLane="52i_0" arrivalPos="10.00" arrivalSpeed="11.65" duration="91.00" routeLength="1015.10" waitSteps="0" timeLoss="14.75" rerouteNo="0" devices="tripinfo_right_9" vType="typeWE" speedFactor="1.00" vaporized=""/>
    <tripinfo id="down_3" depart="4.00" departLane="53o_0" departPos="7.10" departSpeed="0.00" departDelay="0.00" arrival="132.00" arrivalLane="54i_0" arrivalPos="10.00" arrivalSpeed="11.60" duration="128.00" routeLength="1013.10" waitSteps="30" timeLoss="56.70" rerouteNo="0" devices="tripinfo_down_3" vType="typeNS" speedFactor="1.00" vaporized=""/>
    <tripinfo id="down_11" depart="31.00" departLane="54o_0" departPos="7.10" departSpeed="0.00" departDelay="0.00" arrival="133.00" arrivalLane="53i_0" arrivalPos="10.00" arrivalSpeed="11.33" duration="102.00" routeLength="1013.10" waitSteps="1" timeLoss="30.08" rerouteNo="0" devices="tripinfo_down_11" vType="typeNS" speedFactor="1.00" vaporized=""/>
    <tripinfo id="down_6" depart="16.00" departLane="53o_0" departPos="7.10" departSpeed="0.00" departDelay="0.00" arrival="135.00" arrivalLane="54i_0" arrivalPos="10.00" arrivalSpeed="11.61" duration="119.00" routeLength="1013.10" waitSteps="17" timeLoss="47.28" rerouteNo="0" devices="tripinfo_down_6" vType="typeNS" speedFactor="1.00" vaporized=""/>
    <tripinfo id="down_12" depart="32.00" departLane="53o_0" departPos="7.10" departSpeed="0.00" departDelay="0.00" arrival="138.00" arrivalLane="54i_0" arrivalPos="10.00" arrivalSpeed="11.60" duration="106.00" routeLength="1013.10" waitSteps="2" timeLoss="34.41" rerouteNo="0" devices="tripinfo_down_12" vType="typeNS" speedFactor="1.00" vaporized=""/>
    <tripinfo id="down_18" depart="51.00" departLane="53o_0" departPos="7.10" departSpeed="0.00" departDelay="0.00" arrival="140.00" arrivalLane="54i_0" arrivalPos="10.00" arrivalSpeed="11.75" duration="89.00" routeLength="1013.10" waitSteps="0" timeLoss="17.51" rerouteNo="0" devices="tripinfo_down_18" vType="typeNS" speedFactor="1.00" vaporized=""/>
    <tripinfo id="left_15" depart="41.00" departLane="52o_0" departPos="5.10" departSpeed="0.00" departDelay="0.00" arrival="169.00" arrivalLane="51i_0" arrivalPos="10.00" arrivalSpeed="11.88" duration="128.00" routeLength="1015.10" waitSteps="26" timeLoss="51.65" rerouteNo="0" devices="tripinfo_left_15" vType="typeWE" speedFactor="1.00" vaporized=""/>
    <tripinfo id="right_10" depart="32.00" departLane="51o_0" departPos="5.10" departSpeed="0.00" departDelay="1.00" arrival="169.00" arrivalLane="52i_0" arrivalPos="10.00" arrivalSpeed="11.43" duration="137.00" routeLength="1015.10" waitSteps="35" timeLoss="61.18" rerouteNo="0" devices="tripinfo_right_10" vType="typeWE" speedFactor="1.00" vaporized=""/>
    <tripinfo id="left_17" depart="49.00" departLane="52o_0" departPos="5.10" departSpeed="0.00" departDelay="0.00" arrival="171.00" arrivalLane="51i_0" arrivalPos="10.00" arrivalSpeed="11.21" duration="122.00" routeLength="1015.10" waitSteps="19" timeLoss="45.93" rerouteNo="0" devices="tripinfo_left_17" vType="typeWE" speedFactor="1.00" vaporized=""/>
    <tripinfo id="right_13" depart="37.00" departLane="51o_0" departPos="5.10" departSpeed="0.00" departDelay="3.00" arrival="172.00" arrivalLane="52i_0" arrivalPos="10.00" arrivalSpeed="11.33" duration="135.00" routeLength="1015.10" waitSteps="32" timeLoss="58.64" rerouteNo="0" devices="tripinfo_right_13" vType="typeWE" speedFactor="1.00" vaporized=""/>
    <tripinfo id="left_22" depart="67.00" departLane="52o_0" departPos="5.10" departSpeed="0.00" departDelay="0.00" arrival="174.00" arrivalLane="51i_0" arrivalPos="10.00" arrivalSpeed="11.42" duration="107.00" routeLength="1015.10" waitSteps="2" timeLoss="30.78" rerouteNo="0" devices="tripinfo_left_22" vType="typeWE" speedFactor="1.00" vaporized=""/>
    <tripinfo id="right_14" depart="42.00" departLane="51o_0" departPos="5.10" departSpeed="0.00" departDelay="2.00" arrival="174.00" arrivalLane="52i_0" arrivalPos="10.00" arrivalSpeed="11.50" duration="132.00" routeLength="1015.10" waitSteps="28" timeLoss="56.05" rerouteNo="0" devices="tripinfo_right_14" vType="typeWE" speedFactor="1.00" vaporized=""/>
    <tripinfo id="down_23" depart="72.00" departLane="54o_0" departPos="7.10" departSpeed="0.00" departDelay="0.00" arrival="187.00" arrivalLane="53i_0" arrivalPos="10.00" arrivalSpeed="11.60" duration="115.00" routeLength="1013.10" waitSteps="15" timeLoss="43.05" rerouteNo="0" devices="tripinfo_down_23" vType="typeNS" speedFactor="1.00" vaporized=""/>
    <tripinfo id="down_26" depart="85.00" departLane="54o_0" departPos="7.10" departSpeed="0.00" departDelay="0.00" arrival="189.00" arrivalLane="53i_0" arrivalPos="10.00" arrivalSpeed="11.45" duration="104.00" routeLength="1013.10" waitSteps="3" timeLoss="32.10" rerouteNo="0" devices="tripinfo_down_26" vType="typeNS" speedFactor="1.00" vaporized=""/>
    <tripinfo id="down_28" depart="98.00" departLane="54o_0" departPos="7.10" departSpeed="0.00" departDelay="0.00" arrival="191.00" arrivalLane="53i_0" arrivalPos="10.00" arrivalSpeed="11.58" duration="93.00" routeLength="1013.10" waitSteps="0" timeLoss="21.02" rerouteNo="0" devices="tripinfo_down_28" vType="typeNS" speedFactor="1.00" vaporized=""/>
    <tripinfo id="down_29" depart="103.00" departLane="53o_0" departPos="7.10" departSpeed="0.00" departDelay="0.00" arrival="192.00" arrivalLane="54i_0" arrivalPos="10.00" arrivalSpeed="11.66" duration="89.00" routeLength="1013.10" waitSteps="0" timeLoss="17.27" rerouteNo="0" devices="tripinfo_down_29" vType="typeNS" speedFactor="1.00" vaporized=""/>
    <tripinfo id="down_30" depart="108.00" departLane="53o_0" departPos="7.10" departSpeed="0.00" departDelay="2.00" arrival="198.00" arrivalLane="54i_0" arrivalPos="10.00" arrivalSpeed="11.61" duration="90.00" routeLength="1013.10" waitSteps="0" timeLoss="18.41" rerouteNo="0" devices="tripinfo_down_30" vType="typeNS" speedFactor="1.00" vaporized=""/>
    <tripinfo id="down_31" depart="114.00" departLane="53o_0" departPos="7.10" departSpeed="0.00" departDelay="6.00" arrival="205.00" arrivalLane="54i_0" arrivalPos="10.00" arrivalSpeed="11.58" duration="91.00" routeLength="1013.10" waitSteps="0" timeLoss="19.10" rerouteNo="0" devices="tripinfo_down_31" vType="typeNS" speedFactor="1.00" vaporized=""/>
    <tripinfo id="left_24" depart="74.00" departLane="52o_0" departPos="5.10" departSpeed="0.00" departDelay="0.00" arrival="223.00" arrivalLane="51i_0" arrivalPos="10.00" arrivalSpeed="11.30" duration="149.00" routeLength="1015.10" waitSteps="40" timeLoss="72.98" rerouteNo="0" devices="tripinfo_left_24" vType="typeWE" speedFactor="1.00" vaporized=""/>
    <tripinfo id="right_16" depart="47.00" departLane="51o_0" departPos="5.10" departSpeed="0.00" departDelay="3.00" arrival="224.00" arrivalLane="52i_0" arrivalPos="10.00" arrivalSpeed="11.60" duration="177.00" routeLength="1015.10" waitSteps="65" timeLoss="100.66" rerouteNo="0" devices="tripinfo_right_16" vType="typeWE" speedFactor="1.00" vaporized=""/>
    <tripinfo id="down_42" depart="135.00" departLane="53o_0" departPos="7.10" departSpeed="0.00" departDelay="0.00" arrival="226.00" arrivalLane="54i_0" arrivalPos="10.00" arrivalSpeed="11.46" duration="91.00" routeLength="1013.10" waitSteps="0" timeLoss="18.85" rerouteNo="0" devices="tripinfo_down_42" vType="typeNS" speedFactor="1.00" vaporized=""/>
    <tripinfo id="down_40" depart="129.00" departLane="54o_0" departPos="7.10" departSpeed="0.00" departDelay="0.00" arrival="231.00" arrivalLane="53i_0" arrivalPos="10.00" arrivalSpeed="11.44" duration="102.00" routeLength="1013.10" waitSteps="2" timeLoss="30.78" rerouteNo="0" devices="tripinfo_down_40" vType="typeNS" speedFactor="1.00" vaporized=""/>
    <tripinfo id="down_45" depart="149.00" departLane="54o_0" departPos="7.10" departSpeed="0.00" departDelay="0.00" arrival="237.00" arrivalLane="53i_0" arrivalPos="10.00" arrivalSpeed="11.26" duration="88.00" routeLength="1013.10" waitSteps="0" timeLoss="16.59" rerouteNo="0" devices="tripinfo_down_45" vType="typeNS" speedFactor="1.00" vaporized=""/>
    <tripinfo id="down_49" depart="162.00" departLane="53o_0" departPos="7.10" departSpeed="0.00" departDelay="0.00" arrival="252.00" arrivalLane="54i_0" arrivalPos="10.00" arrivalSpeed="11.46" duration="90.00" routeLength="1013.10" waitSteps="0" timeLoss="18.20" rerouteNo="0" devices="tripinfo_down_49" vType="typeNS" speedFactor="1.00" vaporized=""/>
    <tripinfo id="left_33" depart="118.00" departLane="52o_0" departPos="5.10" departSpeed="0.00" departDelay="1.00" arrival="269.00" arrivalLane="51i_0" arrivalPos="10.00" arrivalSpeed="11.33" duration="151.00" routeLength="1015.10" waitSteps="43" timeLoss="75.02" rerouteNo="0" devices="tripinfo_left_33" vType="typeWE" speedFactor="1.00" vaporized=""/>
    <tripinfo id="right_19" depart="56.00" departLane="51o_0" departPos="5.10" departSpeed="0.00" departDelay="0.00" arrival="269.00" arrivalLane="52i_0" arrivalPos="10.00" arrivalSpeed="11.67" duration="213.00" routeLength="1015.10" waitSteps="94" timeLoss="136.49" rerouteNo="0" devices="tripinfo_right_19" vType="typeWE" speedFactor="1.00" vaporized=""/>
    <tripinfo id="right_20" depart="63.00" departLane="51o_0" departPos="5.10" departSpeed="0.00" departDelay="0.00" arrival="270.00" arrivalLane="52i_0" arrivalPos="10.00" arrivalSpeed="11.48" duration="207.00" routeLength="1015.10" waitSteps="88" timeLoss="131.26" rerouteNo="0" devices="tripinfo_right_20" vType="typeWE" speedFactor="1.00" vaporized=""/>
    <tripinfo id="left_34" depart="123.00" departLane="52o_0" departPos="5.10" departSpeed="0.00" departDelay="3.00" arrival="271.00" arrivalLane="51i_0" arrivalPos="10.00" arrivalSpeed="11.82" duration="148.00" routeLength="1015.10" waitSteps="38" timeLoss="71.78" rerouteNo="0" devices="tripinfo_left_34" vType="typeWE" speedFactor="1.00" vaporized=""/>
    <tripinfo id="right_21" depart="68.00" departLane="51o_0" departPos="5.10" departSpeed="0.00" departDelay="4.00" arrival="272.00" arrivalLane="52i_0" arrivalPos="10.00" arrivalSpeed="11.48" duration="204.00" routeLength="1015.10" waitSteps="83" timeLoss="128.02" rerouteNo="0" devices="tripinfo_right_21" vType="typeWE" speedFactor="1.00" vaporized=""/>
    <tripinfo id="left_35" depart="128.00" departLane="52o_0" departPos="5.10" departSpeed="0.00" departDelay="5.00" arrival="273.00" arrivalLane="51i_0" arrivalPos="10.00" arrivalSpeed="11.13" duration="145.00" routeLength="1015.10" waitSteps="36" timeLoss="68.72" rerouteNo="0" devices="tripinfo_left_35" vType="typeWE" speedFactor="1.00" vaporized=""/>
    <tripinfo id="right_25" depart="81.00" departLane="51o_0" departPos="5.10" departSpeed="0.00" departDelay="0.00" arrival="274.00" arrivalLane="52i_0" arrivalPos="10.00" arrivalSpeed="11.73" duration="193.00" routeLength="1015.10" waitSteps="74" timeLoss="117.04" rerouteNo="0" devices="tripinfo_right_25" vType="typeWE" speedFactor="1.00" vaporized=""/>
    <tripinfo id="left_36" depart="133.00" departLane="52o_0" departPos="5.10" departSpeed="0.00" departDelay="8.00" arrival="275.00" arrivalLane="51i_0" arrivalPos="10.00" arrivalSpeed="10.89" duration="142.00" routeLength="1015.10" waitSteps="35" timeLoss="66.01" rerouteNo="0" devices="tripinfo_left_36" vType="typeWE" speedFactor="1.00" vaporized=""/>
    <tripinfo id="left_39" depart="138.00" departLane="52o_0" departPos="5.10" departSpeed="0.00" departDelay="9.00" arrival="277.00" arrivalLane="51i_0" arrivalPos="10.00" arrivalSpeed="11.39" duration="139.00" routeLength="1015.10" waitSteps="34" timeLoss="63.22" rerouteNo="0" devices="tripinfo_left_39" vType="typeWE" speedFactor="1.00" vaporized=""/>
    <tripinfo id="right_27" depart="92.00" departLane="51o_0" departPos="5.10" departSpeed="0.00" departDelay="0.00" arrival="277.00" arrivalLane="52i_0" arrivalPos="10.00" arrivalSpeed="11.20" duration="185.00" routeLength="1015.10" waitSteps="73" timeLoss="108.69" rerouteNo="0" devices="tripinfo_right_27" vType="typeWE" speedFactor="1.00" vaporized=""/>
    <tripinfo id="left_43" depart="143.00" departLane="52o_0" departPos="5.10" departSpeed="0.00" departDelay="6.00" arrival="279.00" arrivalLane="51i_0" arrivalPos="10.00" arrivalSpeed="11.32" duration="136.00" routeLength="1015.10" waitSteps="31" timeLoss="59.90" rerouteNo="0" devices="tripinfo_left_43" vType="typeWE" speedFactor="1.00" vaporized=""/>
    <tripinfo id="right_32" depart="115.00" departLane="51o_0" departPos="5.10" departSpeed="0.00" departDelay="0.00" arrival="279.00" arrivalLane="52i_0" arrivalPos="10.00" arrivalSpeed="11.51" duration="164.00" routeLength="1015.10" waitSteps="50" timeLoss="87.72" rerouteNo="0" devices="tripinfo_right_32" vType="typeWE" speedFactor="1.00" vaporized=""/>
    <tripinfo id="left_44" depart="148.00" departLane="52o_0" departPos="5.10" departSpeed="0.00" departDelay="1.00" arrival="281.00" arrivalLane="51i_0" arrivalPos="10.00" arrivalSpeed="11.60" duration="133.00" routeLength="1015.10" waitSteps="25" timeLoss="56.90" rerouteNo="0" devices="tripinfo_left_44" vType="typeWE" speedFactor="1.00" vaporized=""/>
    <tripinfo id="right_37" depart="126.00" departLane="51o_0" departPos="5.10" departSpeed="0.00" departDelay="0.00" arrival="281.00" arrivalLane="52i_0" arrivalPos="10.00" arrivalSpeed="11.29" duration="155.00" routeLength="1015.10" waitSteps="39" timeLoss="78.56" rerouteNo="0" devices="tripinfo_right_37" vType="typeWE" speedFactor="1.00" vaporized=""/>
    <tripinfo id="left_48" depart="159.00" departLane="52o_0" departPos="5.10" departSpeed="0.00" departDelay="0.00" arrival="283.00" arrivalLane="51i_0" arrivalPos="10.00" arrivalSpeed="11.49" duration="124.00" routeLength="1015.10" waitSteps="18" timeLoss="47.96" rerouteNo="0" devices="tripinfo_left_48" vType="typeWE" speedFactor="1.00" vaporized=""/>
    <tripinfo id="right_38" depart="131.00" departLane="51o_0" departPos="5.10" departSpeed="0.00" departDelay="4.00" arrival="283.00" arrivalLane="52i_0" arrivalPos="10.00" arrivalSpeed="11.68" duration="152.00" routeLength="1015.10" waitSteps="37" timeLoss="75.73" rerouteNo="0" devices="tripinfo_right_38" vType="typeWE" speedFactor="1.00" vaporized=""/>
    <tripinfo id="right_41" depart="136.00" departLane="51o_0" departPos="5.10" departSpeed="0.00" departDelay="4.00" arrival="285.00" arrivalLane="52i_0" arrivalPos="10.00" arrivalSpeed="11.58" duration="149.00" routeLength="1015.10" waitSteps="35" timeLoss="72.56" rerouteNo="0" devices="tripinfo_right_41" vType="typeWE" speedFactor="1.00" vaporized=""/>
    <tripinfo id="right_46" depart="150.00" departLane="51o_0" departPos="5.10" departSpeed="0.00" departDelay="0.00" arrival="287.00" arrivalLane="52i_0" arrivalPos="10.00" arrivalSpeed="11.50" duration="137.00" routeLength="1015.10" waitSteps="30" timeLoss="60.50" rerouteNo="0" devices="tripinfo_right_46" vType="typeWE" speedFactor="1.00" vaporized=""/>
    <tripinfo id="right_47" depart="155.00" departLane="51o_0" departPos="5.10" departSpeed="0.00" departDelay="3.00" arrival="289.00" arrivalLane="52i_0" arrivalPos="10.00" arrivalSpeed="11.70" duration="134.00" routeLength="1015.10" waitSteps="26" timeLoss="57.54" rerouteNo="0" devices="tripinfo_right_47" vType="typeWE" speedFactor="1.00" vaporized=""/>
    <tripinfo id="right_50" depart="164.00" departLane="51o_0" departPos="5.10" departSpeed="0.00" departDelay="0.00" arrival="291.00" arrivalLane="52i_0" arrivalPos="10.00" arrivalSpeed="11.16" duration="127.00" routeLength="1015.10" waitSteps="18" timeLoss="50.38" rerouteNo="0" devices="tripinfo_right_50" vType="typeWE" speedFactor="1.00" vaporized=""/>
    <tripinfo id="right_51" depart="171.00" departLane="51o_0" departPos="5.10" departSpeed="0.00" departDelay="0.00" arrival="292.00" arrivalLane="52i_0" arrivalPos="10.00" arrivalSpeed="10.78" duration="121.00" routeLength="1015.10" waitSteps="14" timeLoss="44.86" rerouteNo="0" devices="tripinfo_right_51" vType="typeWE" speedFactor="1.00" vaporized=""/>
    <tripinfo id="right_52" depart="179.00" departLane="51o_0" departPos="5.10" departSpeed="0.00" departDelay="0.00" arrival="295.00" arrivalLane="52i_0" arrivalPos="10.00" arrivalSpeed="11.20" duration="116.00" routeLength="1015.10" waitSteps="7" timeLoss="39.31" rerouteNo="0" devices="tripinfo_right_52" vType="typeWE" speedFactor="1.00" vaporized=""/>
    <tripinfo id="left_55" depart="204.00" departLane="52o_0" departPos="5.10" departSpeed="0.00" departDelay="0.00" arrival="296.00" arrivalLane="51i_0" arrivalPos="10.00" arrivalSpeed="11.76" duration="92.00" routeLength="1015.10" waitSteps="0" timeLoss="15.76" rerouteNo="0" devices="tripinfo_left_55" vType="typeWE" speedFactor="1.00" vaporized=""/>
    <tripinfo id="right_53" depart="184.00" departLane="51o_0" departPos="5.10" departSpeed="0.00" departDelay="4.00" arrival="296.00" arrivalLane="52i_0" arrivalPos="10.00" arrivalSpeed="11.83" duration="112.00" routeLength="1015.10" waitSteps="4" timeLoss="36.11" rerouteNo="0" devices="tripinfo_right_53" vType="typeWE" speedFactor="1.00" vaporized=""/>
    <tripinfo id="right_54" depart="189.00" departLane="51o_0" departPos="5.10" departSpeed="0.00" departDelay="7.00" arrival="298.00" arrivalLane="52i_0" arrivalPos="10.00" arrivalSpeed="11.58" duration="109.00" routeLength="1015.10" waitSteps="1" timeLoss="32.93" rerouteNo="0" devices="tripinfo_right_54" vType="typeWE" speedFactor="1.00" vaporized=""/>
    <tripinfo id="right_57" depart="213.00" departLane="51o_0" departPos="5.10" departSpeed="0.00" departDelay="0.00" arrival="305.00" arrivalLane="52i_0" arrivalPos="10.00" arrivalSpeed="11.45" duration="92.00" routeLength="1015.10" waitSteps="0" timeLoss="15.99" rerouteNo="0" devices="tripinfo_right_57" vType="typeWE" speedFactor="1.00" vaporized=""/>
    <tripinfo id="down_56" depart="212.00" departLane="53o_0" departPos="7.10" departSpeed="0.00" departDelay="0.00" arrival="321.00" arrivalLane="54i_0" arrivalPos="10.00" arrivalSpeed="11.48" duration="109.00" routeLength="1013.10" waitSteps="10" timeLoss="37.53" rerouteNo="0" devices="tripinfo_down_56" vType="typeNS" speedFactor="1.00" vaporized=""/>
    <tripinfo id="down_60" depart="220.00" departLane="54o_0" departPos="7.10" departSpeed="0.00" departDelay="0.00" arrival="321.00" arrivalLane="53i_0" arrivalPos="10.00" arrivalSpeed="11.64" duration="101.00" routeLength="1013.10" waitSteps="2" timeLoss="29.47" rerouteNo="0" devices="tripinfo_down_60" vType="typeNS" speedFactor="1.00" vaporized=""/>
    <tripinfo id="down_65" depart="242.00" departLane="53o_0" departPos="7.10" departSpeed="0.00" departDelay="0.00" arrival="331.00" arrivalLane="54i_0" arrivalPos="10.00" arrivalSpeed="11.68" duration="89.00" routeLength="1013.10" waitSteps="0" timeLoss="17.24" rerouteNo="0" devices="tripinfo_down_65" vType="typeNS" speedFactor="1.00" vaporized=""/>
    <tripinfo id="down_64" depart="241.00" departLane="54o_0" departPos="7.10" departSpeed="0.00" departDelay="0.00" arrival="331.00" arrivalLane="53i_0" arrivalPos="10.00" arrivalSpeed="11.77" duration="90.00" routeLength="1013.10" waitSteps="0" timeLoss="18.54" rerouteNo="0" devices="tripinfo_down_64" vType="typeNS" speedFactor="1.00" vaporized=""/>
    <tripinfo id="down_67" depart="248.00" departLane="53o_0" departPos="7.10" departSpeed="0.00" departDelay="0.00" arrival="337.00" arrivalLane="54i_0" arrivalPos="10.00" arrivalSpeed="11.71" duration="89.00" routeLength="1013.10" waitSteps="0" timeLoss="17.41" rerouteNo="0" devices="tripinfo_down_67" vType="typeNS" speedFactor="1.00" vaporized=""/>
    <tripinfo id="right_58" depart="219.00" departLane="51o_0" departPos="5.10" departSpeed="0.00" departDelay="3.00" arrival="358.00" arrivalLane="52i_0" arrivalPos="10.00" arrivalSpeed="11.71" duration="139.00" routeLength="1015.10" waitSteps="37" timeLoss="62.53" rerouteNo="0" devices="tripinfo_right_58" vType="typeWE" speedFactor="1.00" vaporized=""/>
    <tripinfo id="left_59" depart="218.00" departLane="52o_0" departPos="5.10" departSpeed="0.00" departDelay="0.00" arrival="359.00" arrivalLane="51i_0" arrivalPos="10.00" arrivalSpeed="11.35" duration="141.00" routeLength="1015.10" waitSteps="39" timeLoss="64.73" rerouteNo="0" devices="tripinfo_left_59" vType="typeWE" speedFactor="1.00" vaporized=""/>
    <tripinfo id="right_61" depart="227.00" departLane="51o_0" departPos="5.10" departSpeed="0.00" departDelay="0.00" arrival="360.00" arrivalLane="52i_0" arrivalPos="10.00" arrivalSpeed="11.51" duration="133.00" routeLength="1015.10" waitSteps="30" timeLoss="57.05" rerouteNo="0" devices="tripinfo_right_61" vType="typeWE" speedFactor="1.00" vaporized=""/>
    <tripinfo id="left_62" depart="232.00" departLane="52o_0" departPos="5.10" departSpeed="0.00" departDelay="0.00" arrival="361.00" arrivalLane="51i_0" arrivalPos="10.00" arrivalSpeed="11.63" duration="129.00" routeLength="1015.10" waitSteps="25" timeLoss="52.61" rerouteNo="0" devices="tripinfo_left_62" vType="typeWE" speedFactor="1.00" vaporized=""/>
    <tripinfo id="right_63" depart="239.00" departLane="51o_0" departPos="5.10" departSpeed="0.00" departDelay="0.00" arrival="362.00" arrivalLane="52i_0" arrivalPos="10.00" arrivalSpeed="11.69" duration="123.00" routeLength="1015.10" waitSteps="20" timeLoss="46.79" rerouteNo="0" devices="tripinfo_right_63" vType="typeWE" speedFactor="1.00" vaporized=""/>
    <tripinfo id="left_69" depart="253.00" departLane="52o_0" departPos="5.10" departSpeed="0.00" departDelay="0.00" arrival="363.00" arrivalLane="51i_0" arrivalPos="10.00" arrivalSpeed="11.41" duration="110.00" routeLength="1015.10" waitSteps="6" timeLoss="33.67" rerouteNo="0" devices="tripinfo_left_69" vType="typeWE" speedFactor="1.00" vaporized=""/>
    <tripinfo id="right_66" depart="245.00" departLane="51o_0" departPos="5.10" departSpeed="0.00" departDelay="0.00" arrival="364.00" arrivalLane="52i_0" arrivalPos="10.00" arrivalSpeed="11.48" duration="119.00" routeLength="1015.10" waitSteps="15" timeLoss="42.63" rerouteNo="0" devices="tripinfo_right_66" vType="typeWE" speedFactor="1.00" vaporized=""/>
    <tripinfo id="left_71" depart="258.00" departLane="52o_0" departPos="5.10" departSpeed="0.00" departDelay="0.00" arrival="365.00" arrivalLane="51i_0" arrivalPos="10.00" arrivalSpeed="11.15" duration="107.00" routeLength="1015.10" waitSteps="3" timeLoss="30.53" rerouteNo="0" devices="tripinfo_left_71" vType="typeWE" speedFactor="1.00" vaporized=""/>
    <tripinfo id="right_68" depart="251.00" departLane="51o_0" departPos="5.10" departSpeed="0.00" departDelay="1.00" arrival="366.00" arrivalLane="52i_0" arrivalPos="10.00" arrivalSpeed="11.42" duration="115.00" routeLength="1015.10" waitSteps="11" timeLoss="39.20" rerouteNo="0" devices="tripinfo_right_68" vType="typeWE" speedFactor="1.00" vaporized=""/>
    <tripinfo id="left_74" depart="263.00" departLane="52o_0" departPos="5.10" departSpeed="0.00" departDelay="1.00" arrival="367.00" arrivalLane="51i_0" arrivalPos="10.00" arrivalSpeed="11.47" duration="104.00" routeLength="1015.10" waitSteps="0" timeLoss="27.40" rerouteNo="0" devices="tripinfo_left_74" vType="typeWE" speedFactor="1.00" vaporized=""/>
    <tripinfo id="right_77" depart="266.00" departLane="51o_0" departPos="5.10" departSpeed="0.00" departDelay="0.00" arrival="368.00" arrivalLane="52i_0" arrivalPos="10.00" arrivalSpeed="11.25" duration="102.00" routeLength="1015.10" waitSteps="0" timeLoss="25.94" rerouteNo="0" devices="tripinfo_right_77" vType="typeWE" speedFactor="1.00" vaporized=""/>
    <tripinfo id="left_76" depart="270.00" departLane="52o_0" departPos="5.10" departSpeed="0.00" departDelay="5.00" arrival="369.00" arrivalLane="51i_0" arrivalPos="10.00" arrivalSpeed="11.52" duration="99.00" routeLength="1015.10" waitSteps="0" timeLoss="22.42" rerouteNo="0" devices="tripinfo_left_76" vType="typeWE" speedFactor="1.00" vaporized=""/>
    <tripinfo id="right_81" depart="287.00" departLane="51o_0" departPos="5.10" departSpeed="0.00" departDelay="0.00" arrival="378.00" arrivalLane="52i_0" arrivalPos="10.00" arrivalSpeed="11.53" duration="91.00" routeLength="1015.10" waitSteps="0" timeLoss="14.79" rerouteNo="0" devices="tripinfo_right_81" vType="typeWE" speedFactor="1.00" vaporized=""/>
    <tripinfo id="down_70" depart="256.00" departLane="54o_0" departPos="7.10" departSpeed="0.00" departDelay="0.00" arrival="395.00" arrivalLane="53i_0" arrivalPos="10.00" arrivalSpeed="11.78" duration="139.00" routeLength="1013.10" waitSteps="39" timeLoss="67.28" rerouteNo="0" devices="tripinfo_down_70" vType="typeNS" speedFactor="1.00" vaporized=""/>
    <tripinfo id="down_73" depart="259.00" departLane="53o_0" departPos="7.10" departSpeed="0.00" departDelay="0.00" arrival="396.00" arrivalLane="54i_0" arrivalPos="10.00" arrivalSpeed="11.44" duration="137.00" routeLength="1013.10" waitSteps="36" timeLoss="65.22" rerouteNo="0" devices="tripinfo_down_73" vType="typeNS" speedFactor="1.00" vaporized=""/>
    <tripinfo id="down_75" depart="265.00" departLane="53o_0" departPos="7.10" departSpeed="0.00" departDelay="2.00" arrival="398.00" arrivalLane="54i_0" arrivalPos="10.00" arrivalSpeed="11.58" duration="133.00" routeLength="1013.10" waitSteps="31" timeLoss="61.31" rerouteNo="0" devices="tripinfo_down_75" vType="typeNS" speedFactor="1.00" vaporized=""/>
    <tripinfo id="down_72" depart="262.00" departLane="54o_0" departPos="7.10" departSpeed="0.00" departDelay="4.00" arrival="398.00" arrivalLane="53i_0" arrivalPos="10.00" arrivalSpeed="11.53" duration="136.00" routeLength="1013.10" waitSteps="34" timeLoss="64.44" rerouteNo="0" devices="tripinfo_down_72" vType="typeNS" speedFactor="1.00" vaporized=""/>
    <tripinfo id="down_80" depart="284.00" departLane="53o_0" departPos="7.10" departSpeed="0.00" departDelay="0.00" arrival="400.00" arrivalLane="54i_0" arrivalPos="10.00" arrivalSpeed="11.48" duration="116.00" routeLength="1013.10" waitSteps="13" timeLoss="44.30" rerouteNo="0" devices="tripinfo_down_80" vType="typeNS" speedFactor="1.00" vaporized=""/>
    <tripinfo id="down_85" depart="293.00" departLane="54o_0" departPos="7.10" departSpeed="0.00" departDelay="0.00" arrival="400.00" arrivalLane="53i_0" arrivalPos="10.00" arrivalSpeed="11.63" duration="107.00" routeLength="1013.10" waitSteps="4" timeLoss="35.68" rerouteNo="0" devices="tripinfo_down_85" vType="typeNS" speedFactor="1.00" vaporized=""/>