<?xml version="1.0" encoding="UTF-8"?>

<!-- generated on Mon  6 Aug 16:52:01 2018 by SUMO gui Version 0.32.0
<?xml version="1.0" encoding="UTF-8"?>

<configuration xmlns:xsi="http://www.w3.org/2001/XMLSchema-instance" xsi:noNamespaceSchemaLocation="http://sumo.dlr.de/xsd/sumoConfiguration.xsd">

    <input>
        <net-file value="/Users/acabrejasegea/sumo-0.32/Data/Networks/doublecross/doublecross.net.xml"/>
        <route-files value="/Users/acabrejasegea/sumo-0.32/Data/Networks/doublecross/doublecrossRandomDemand.rou.xml"/>
        <additional-files value="/Users/acabrejasegea/sumo-0.32/Data/Networks/doublecross/doublecrossAdditional.add.xml"/>
    </input>

    <output>
        <tripinfo-output value="BasicQ_cross_out/tripinfo.xml"/>
    </output>

    <time>
        <begin value="0"/>
        <end value="7200"/>
    </time>

    <traci_server>
        <remote-port value="50442"/>
    </traci_server>

    <gui_only>
        <gui-settings-file value="/Users/acabrejasegea/sumo-0.32/Data/Networks/doublecross/doublecross.settings.xml"/>
    </gui_only>

</configuration>
-->

<tripinfos xmlns:xsi="http://www.w3.org/2001/XMLSchema-instance" xsi:noNamespaceSchemaLocation="http://sumo.dlr.de/xsd/tripinfo_file.xsd">
    <tripinfo id="4" depart="8.00" departLane="A1_0" departPos="5.10" departSpeed="0.00" departDelay="0.00" arrival="150.00" arrivalLane="-A6_0" arrivalPos="391.95" arrivalSpeed="13.68" duration="142.00" routeLength="1387.39" waitSteps="28" timeLoss="41.88" rerouteNo="0" devices="tripinfo_4" vType="DEFAULT_VEHTYPE" speedFactor="1.00" vaporized=""/>
    <tripinfo id="48" depart="96.00" departLane="A9_0" departPos="5.10" departSpeed="0.00" departDelay="0.00" arrival="193.00" arrivalLane="-A8_0" arrivalPos="491.95" arrivalSpeed="12.89" duration="97.00" routeLength="1237.10" waitSteps="0" timeLoss="7.30" rerouteNo="0" devices="tripinfo_48" vType="DEFAULT_VEHTYPE" speedFactor="1.00" vaporized=""/>
    <tripinfo id="58" depart="116.00" departLane="A3_0" departPos="5.10" departSpeed="0.00" departDelay="0.00" arrival="195.00" arrivalLane="-A1_0" arrivalPos="491.95" arrivalSpeed="13.05" duration="79.00" routeLength="994.90" waitSteps="0" timeLoss="6.60" rerouteNo="0" devices="tripinfo_58" vType="DEFAULT_VEHTYPE" speedFactor="1.00" vaporized=""/>
    <tripinfo id="49" depart="99.00" departLane="A9_0" departPos="5.10" departSpeed="0.00" departDelay="1.00" arrival="196.00" arrivalLane="-A8_0" arrivalPos="491.95" arrivalSpeed="13.33" duration="97.00" routeLength="1237.10" waitSteps="0" timeLoss="7.53" rerouteNo="0" devices="tripinfo_49" vType="DEFAULT_VEHTYPE" speedFactor="1.00" vaporized=""/>
    <tripinfo id="57" depart="114.00" departLane="A9_0" departPos="5.10" departSpeed="0.00" departDelay="0.00" arrival="211.00" arrivalLane="-A8_0" arrivalPos="491.95" arrivalSpeed="12.83" duration="97.00" routeLength="1237.10" waitSteps="0" timeLoss="7.69" rerouteNo="0" devices="tripinfo_57" vType="DEFAULT_VEHTYPE" speedFactor="1.00" vaporized=""/>
    <tripinfo id="69" depart="138.00" departLane="A3_0" departPos="5.10" departSpeed="0.00" departDelay="0.00" arrival="220.00" arrivalLane="-A1_0" arrivalPos="491.95" arrivalSpeed="12.66" duration="82.00" routeLength="994.90" waitSteps="1" timeLoss="9.40" rerouteNo="0" devices="tripinfo_69" vType="DEFAULT_VEHTYPE" speedFactor="1.00" vaporized=""/>
    <tripinfo id="63" depart="126.00" departLane="A9_0" departPos="5.10" departSpeed="0.00" departDelay="0.00" arrival="224.00" arrivalLane="-A7_0" arrivalPos="491.95" arrivalSpeed="12.84" duration="98.00" routeLength="1245.19" waitSteps="0" timeLoss="7.68" rerouteNo="0" devices="tripinfo_63" vType="DEFAULT_VEHTYPE" speedFactor="1.00" vaporized=""/>
    <tripinfo id="11" depart="22.00" departLane="A7_0" departPos="5.10" departSpeed="0.00" departDelay="0.00" arrival="229.00" arrivalLane="-A9_0" arrivalPos="745.25" arrivalSpeed="13.59" duration="207.00" routeLength="1237.10" waitSteps="104" timeLoss="117.69" rerouteNo="0" devices="tripinfo_11" vType="DEFAULT_VEHTYPE" speedFactor="1.00" vaporized=""/>
    <tripinfo id="86" depart="172.00" departLane="A5_0" departPos="5.10" departSpeed="0.00" departDelay="0.00" arrival="238.00" arrivalLane="-A6_0" arrivalPos="391.95" arrivalSpeed="13.50" duration="66.00" routeLength="794.90" waitSteps="1" timeLoss="8.48" rerouteNo="0" devices="tripinfo_86" vType="DEFAULT_VEHTYPE" speedFactor="1.00" vaporized=""/>
    <tripinfo id="85" depart="170.00" departLane="A9_0" departPos="5.10" departSpeed="0.00" departDelay="0.00" arrival="267.00" arrivalLane="-A8_0" arrivalPos="491.95" arrivalSpeed="13.80" duration="97.00" routeLength="1237.10" waitSteps="0" timeLoss="7.50" rerouteNo="0" devices="tripinfo_85" vType="DEFAULT_VEHTYPE" speedFactor="1.00" vaporized=""/>
    <tripinfo id="90" depart="180.00" departLane="A9_0" departPos="5.10" departSpeed="0.00" departDelay="0.00" arrival="277.00" arrivalLane="-A7_0" arrivalPos="491.95" arrivalSpeed="13.13" duration="97.00" routeLength="1245.19" waitSteps="0" timeLoss="6.95" rerouteNo="0" devices="tripinfo_90" vType="DEFAULT_VEHTYPE" speedFactor="1.00" vaporized=""/>
    <tripinfo id="98" depart="196.00" departLane="A9_0" departPos="5.10" departSpeed="0.00" departDelay="0.00" arrival="293.00" arrivalLane="-A8_0" arrivalPos="491.95" arrivalSpeed="13.32" duration="97.00" routeLength="1237.10" waitSteps="0" timeLoss="7.45" rerouteNo="0" devices="tripinfo_98" vType="DEFAULT_VEHTYPE" speedFactor="1.00" vaporized=""/>
    <tripinfo id="10" depart="20.00" departLane="A9_0" departPos="5.10" departSpeed="0.00" departDelay="0.00" arrival="296.00" arrivalLane="-A1_0" arrivalPos="491.95" arrivalSpeed="13.62" duration="276.00" routeLength="1995.19" waitSteps="110" timeLoss="131.47" rerouteNo="0" devices="tripinfo_10" vType="DEFAULT_VEHTYPE" speedFactor="1.00" vaporized=""/>
    <tripinfo id="103" depart="206.00" departLane="A9_0" departPos="5.10" departSpeed="0.00" departDelay="0.00" arrival="304.00" arrivalLane="-A7_0" arrivalPos="491.95" arrivalSpeed="13.60" duration="98.00" routeLength="1245.19" waitSteps="0" timeLoss="7.58" rerouteNo="0" devices="tripinfo_103" vType="DEFAULT_VEHTYPE" speedFactor="1.00" vaporized=""/>
    <tripinfo id="20" depart="40.00" departLane="A1_0" departPos="5.10" departSpeed="0.00" departDelay="0.00" arrival="330.00" arrivalLane="-A8_0" arrivalPos="491.95" arrivalSpeed="12.86" duration="290.00" routeLength="1736.64" waitSteps="149" timeLoss="164.77" rerouteNo="0" devices="tripinfo_20" vType="DEFAULT_VEHTYPE" speedFactor="1.00" vaporized=""/>
    <tripinfo id="134" depart="268.00" departLane="A5_0" departPos="5.10" departSpeed="0.00" departDelay="0.00" arrival="332.00" arrivalLane="-A6_0" arrivalPos="391.95" arrivalSpeed="13.26" duration="64.00" routeLength="794.90" waitSteps="0" timeLoss="5.88" rerouteNo="0" devices="tripinfo_134" vType="DEFAULT_VEHTYPE" speedFactor="1.00" vaporized=""/>
    <tripinfo id="3" depart="6.00" departLane="A3_0" departPos="5.10" departSpeed="0.00" departDelay="0.00" arrival="349.00" arrivalLane="-A9_0" arrivalPos="745.25" arrivalSpeed="13.32" duration="343.00" routeLength="1995.19" waitSteps="177" timeLoss="198.71" rerouteNo="0" devices="tripinfo_3" vType="DEFAULT_VEHTYPE" speedFactor="1.00" vaporized=""/>
    <tripinfo id="50" depart="100.00" departLane="A1_0" departPos="5.10" departSpeed="0.00" departDelay="0.00" arrival="375.00" arrivalLane="-A2_0" arrivalPos="490.50" arrivalSpeed="5.22" duration="275.00" routeLength="990.44" waitSteps="186" timeLoss="203.60" rerouteNo="0" devices="tripinfo_50" vType="DEFAULT_VEHTYPE" speedFactor="1.00" vaporized=""/>
    <tripinfo id="24" depart="48.00" departLane="A9_0" departPos="5.10" departSpeed="0.00" departDelay="0.00" arrival="385.00" arrivalLane="-A1_0" arrivalPos="491.95" arrivalSpeed="12.84" duration="337.00" routeLength="1995.19" waitSteps="170" timeLoss="192.63" rerouteNo="0" devices="tripinfo_24" vType="DEFAULT_VEHTYPE" speedFactor="1.00" vaporized=""/>
    <tripinfo id="65" depart="131.00" departLane="A3_0" departPos="5.10" departSpeed="0.00" departDelay="1.00" arrival="404.00" arrivalLane="-A6_0" arrivalPos="391.95" arrivalSpeed="13.32" duration="273.00" routeLength="1379.30" waitSteps="161" timeLoss="173.42" rerouteNo="0" devices="tripinfo_65" vType="DEFAULT_VEHTYPE" speedFactor="1.00" vaporized=""/>
    <tripinfo id="14" depart="28.00" departLane="A3_0" departPos="5.10" departSpeed="0.00" departDelay="0.00" arrival="405.00" arrivalLane="-A5_0" arrivalPos="391.95" arrivalSpeed="12.94" duration="377.00" routeLength="1387.39" waitSteps="251" timeLoss="276.65" rerouteNo="0" devices="tripinfo_14" vType="DEFAULT_VEHTYPE" speedFactor="1.00" vaporized=""/>
    <tripinfo id="164" depart="328.00" departLane="A9_0" departPos="5.10" departSpeed="0.00" departDelay="0.00" arrival="425.00" arrivalLane="-A7_0" arrivalPos="491.95" arrivalSpeed="13.06" duration="97.00" routeLength="1245.19" waitSteps="0" timeLoss="7.12" rerouteNo="0" devices="tripinfo_164" vType="DEFAULT_VEHTYPE" speedFactor="1.00" vaporized=""/>
    <tripinfo id="12" depart="24.00" departLane="A3_0" departPos="5.10" departSpeed="0.00" departDelay="0.00" arrival="430.00" arrivalLane="-A9_1" arrivalPos="745.25" arrivalSpeed="12.80" duration="406.00" routeLength="1995.19" waitSteps="231" timeLoss="262.26" rerouteNo="0" devices="tripinfo_12" vType="DEFAULT_VEHTYPE" speedFactor="1.00" vaporized=""/>
    <tripinfo id="5" depart="10.00" departLane="A3_0" departPos="5.10" departSpeed="0.00" departDelay="0.00" arrival="431.00" arrivalLane="-A9_0" arrivalPos="745.25" arrivalSpeed="12.66" duration="421.00" routeLength="1995.19" waitSteps="250" timeLoss="276.99" rerouteNo="0" devices="tripinfo_5" vType="DEFAULT_VEHTYPE" speedFactor="1.00" vaporized=""/>
    <tripinfo id="176" depart="352.00" departLane="A3_0" departPos="5.10" departSpeed="0.00" departDelay="0.00" arrival="431.00" arrivalLane="-A1_0" arrivalPos="491.95" arrivalSpeed="12.81" duration="79.00" routeLength="994.90" waitSteps="0" timeLoss="6.87" rerouteNo="0" devices="tripinfo_176" vType="DEFAULT_VEHTYPE" speedFactor="1.00" vaporized=""/>
    <tripinfo id="68" depart="136.00" departLane="A1_0" departPos="5.10" departSpeed="0.00" departDelay="0.00" arrival="444.00" arrivalLane="-A3_0" arrivalPos="491.95" arrivalSpeed="12.72" duration="308.00" routeLength="994.90" waitSteps="213" timeLoss="235.67" rerouteNo="0" devices="tripinfo_68" vType="DEFAULT_VEHTYPE" speedFactor="1.00" vaporized=""/>
    <tripinfo id="0" depart="0.00" departLane="A8_0" departPos="5.10" departSpeed="0.00" departDelay="0.00" arrival="444.00" arrivalLane="-A6_0" arrivalPos="391.95" arrivalSpeed="13.03" duration="444.00" routeLength="2128.85" waitSteps="257" timeLoss="290.51" rerouteNo="0" devices="tripinfo_0" vType="DEFAULT_VEHTYPE" speedFactor="1.00" vaporized=""/>
    <tripinfo id="15" depart="31.00" departLane="A3_0" departPos="5.10" departSpeed="0.00" departDelay="1.00" arrival="445.00" arrivalLane="-A5_0" arrivalPos="391.95" arrivalSpeed="13.13" duration="414.00" routeLength="1387.39" waitSteps="283" timeLoss="313.77" rerouteNo="0" devices="tripinfo_15" vType="DEFAULT_VEHTYPE" speedFactor="1.00" vaporized=""/>
    <tripinfo id="17" depart="34.00" departLane="A9_0" departPos="5.10" departSpeed="0.00" departDelay="0.00" arrival="452.00" arrivalLane="-A6_0" arrivalPos="391.95" arrivalSpeed="13.39" duration="418.00" routeLength="2387.10" waitSteps="209" timeLoss="245.30" rerouteNo="0" devices="tripinfo_17" vType="DEFAULT_VEHTYPE" speedFactor="1.00" vaporized=""/>
    <tripinfo id="46" depart="92.00" departLane="A3_0" departPos="5.10" departSpeed="0.00" departDelay="0.00" arrival="453.00" arrivalLane="-A5_0" arrivalPos="391.95" arrivalSpeed="13.46" duration="361.00" routeLength="1387.39" waitSteps="234" timeLoss="260.29" rerouteNo="0" devices="tripinfo_46" vType="DEFAULT_VEHTYPE" speedFactor="1.00" vaporized=""/>
    <tripinfo id="64" depart="128.00" departLane="A3_0" departPos="5.10" departSpeed="0.00" departDelay="0.00" arrival="455.00" arrivalLane="-A5_0" arrivalPos="391.95" arrivalSpeed="13.32" duration="327.00" routeLength="1387.39" waitSteps="203" timeLoss="226.91" rerouteNo="0" devices="tripinfo_64" vType="DEFAULT_VEHTYPE" speedFactor="1.00" vaporized=""/>
    <tripinfo id="1" depart="3.00" departLane="A8_0" departPos="5.10" departSpeed="0.00" departDelay="1.00" arrival="457.00" arrivalLane="-A5_0" arrivalPos="391.95" arrivalSpeed="12.59" duration="454.00" routeLength="2136.94" waitSteps="260" timeLoss="299.83" rerouteNo="0" devices="tripinfo_1" vType="DEFAULT_VEHTYPE" speedFactor="1.00" vaporized=""/>
    <tripinfo id="54" depart="108.00" departLane="A1_0" departPos="5.10" departSpeed="0.00" departDelay="0.00" arrival="463.00" arrivalLane="-A5_0" arrivalPos="391.95" arrivalSpeed="13.46" duration="355.00" routeLength="1395.48" waitSteps="211" timeLoss="253.93" rerouteNo="0" devices="tripinfo_54" vType="DEFAULT_VEHTYPE" speedFactor="1.00" vaporized=""/>
    <tripinfo id="184" depart="368.00" departLane="A9_0" departPos="5.10" departSpeed="0.00" departDelay="0.00" arrival="465.00" arrivalLane="-A7_0" arrivalPos="491.95" arrivalSpeed="13.41" duration="97.00" routeLength="1245.19" waitSteps="0" timeLoss="6.84" rerouteNo="0" devices="tripinfo_184" vType="DEFAULT_VEHTYPE" speedFactor="1.00" vaporized=""/>
    <tripinfo id="8" depart="16.00" departLane="A6_0" departPos="5.10" departSpeed="0.00" departDelay="0.00" arrival="476.00" arrivalLane="-A1_0" arrivalPos="491.95" arrivalSpeed="13.12" duration="460.00" routeLength="1387.39" waitSteps="343" timeLoss="359.81" rerouteNo="0" devices="tripinfo_8" vType="DEFAULT_VEHTYPE" speedFactor="1.00" vaporized=""/>
    <tripinfo id="208" depart="416.00" departLane="A5_0" departPos="5.10" departSpeed="0.00" departDelay="0.00" arrival="479.00" arrivalLane="-A6_0" arrivalPos="391.95" arrivalSpeed="12.72" duration="63.00" routeLength="794.90" waitSteps="0" timeLoss="5.04" rerouteNo="0" devices="tripinfo_208" vType="DEFAULT_VEHTYPE" speedFactor="1.00" vaporized=""/>
    <tripinfo id="195" depart="390.00" departLane="A9_0" departPos="5.10" departSpeed="0.00" departDelay="0.00" arrival="487.00" arrivalLane="-A7_0" arrivalPos="491.95" arrivalSpeed="13.01" duration="97.00" routeLength="1245.19" waitSteps="0" timeLoss="7.27" rerouteNo="0" devices="tripinfo_195" vType="DEFAULT_VEHTYPE" speedFactor="1.00" vaporized=""/>
    <tripinfo id="205" depart="410.00" departLane="A9_0" departPos="5.10" departSpeed="0.00" departDelay="0.00" arrival="507.00" arrivalLane="-A8_0" arrivalPos="491.95" arrivalSpeed="12.78" duration="97.00" routeLength="1237.10" waitSteps="0" timeLoss="7.65" rerouteNo="0" devices="tripinfo_205" vType="DEFAULT_VEHTYPE" speedFactor="1.00" vaporized=""/>
    <tripinfo id="28" depart="56.00" departLane="A7_0" departPos="5.10" departSpeed="0.00" departDelay="0.00" arrival="512.00" arrivalLane="-A8_0" arrivalPos="491.95" arrivalSpeed="13.28" duration="456.00" routeLength="994.90" waitSteps="374" timeLoss="385.84" rerouteNo="0" devices="tripinfo_28" vType="DEFAULT_VEHTYPE" speedFactor="1.00" vaporized=""/>
</tripinfos>
