<?xml version="1.0" encoding="UTF-8"?>

<!-- generated on Tue  7 Aug 11:58:32 2018 by SUMO gui Version 0.32.0
<?xml version="1.0" encoding="UTF-8"?>

<configuration xmlns:xsi="http://www.w3.org/2001/XMLSchema-instance" xsi:noNamespaceSchemaLocation="http://sumo.dlr.de/xsd/sumoConfiguration.xsd">

    <input>
        <net-file value="/Users/acabrejasegea/sumo-0.32/Data/Networks/doublecross/doublecross.net.xml"/>
        <route-files value="/Users/acabrejasegea/sumo-0.32/Data/Networks/doublecross/doublecrossRandomDemand.rou.xml"/>
        <additional-files value="/Users/acabrejasegea/sumo-0.32/Data/Networks/doublecross/doublecrossAdditional.add.xml"/>
    </input>

    <output>
        <tripinfo-output value="BasicQ_doublecross_out/tripinfo.xml"/>
    </output>

    <time>
        <begin value="0"/>
        <end value="7200"/>
    </time>

    <traci_server>
        <remote-port value="60625"/>
    </traci_server>

    <gui_only>
        <gui-settings-file value="/Users/acabrejasegea/sumo-0.32/Data/Networks/doublecross/doublecross.settings.xml"/>
    </gui_only>

</configuration>
-->

<meandata xmlns:xsi="http://www.w3.org/2001/XMLSchema-instance" xsi:noNamespaceSchemaLocation="http://sumo.dlr.de/xsd/meandata_file.xsd">
    <interval begin="0.00" end="60.00" id="emissionEdgeData1">
        <edge id="-A2" sampledSeconds="10.06" CO_abs="154.861521" CO2_abs="19784.358011" HC_abs="1.162952" PMx_abs="0.272740" NOx_abs="7.408730" fuel_abs="8.504458" electricity_abs="0"
            CO_normed="18.943305" CO2_normed="2420.104955" HC_normed="0.142257" PMx_normed="0.033363" NOx_normed="0.906267" fuel_normed="1.040301" electricity_normed="0"
            traveltime="37.23" CO_perVeh="573.405329" CO2_perVeh="73255.488337" HC_perVeh="4.306059" PMx_perVeh="1.009872" NOx_perVeh="27.432283" fuel_perVeh="31.489433" electricity_perVeh="0"/>
        <edge id="A1" sampledSeconds="59.30" CO_abs="2425.314892" CO2_abs="173470.612107" HC_abs="15.091406" PMx_abs="2.846717" NOx_abs="68.916769" fuel_abs="74.567783" electricity_abs="0"
            CO_normed="295.800170" CO2_normed="21157.102808" HC_normed="1.840602" PMx_normed="0.347196" NOx_normed="8.405338" fuel_normed="9.094556" electricity_normed="0"
            traveltime="41.55" CO_perVeh="1699.398964" CO2_perVeh="121549.485982" HC_perVeh="10.574429" PMx_perVeh="1.994672" NOx_perVeh="48.289435" fuel_perVeh="52.249056" electricity_perVeh="0"/>
        <edge id="A2" sampledSeconds="41.46" CO_abs="808.334230" CO2_abs="90205.665686" HC_abs="5.771029" PMx_abs="1.303967" NOx_abs="34.324525" fuel_abs="38.775575" electricity_abs="0"
            CO_normed="98.878805" CO2_normed="11034.332194" HC_normed="0.705936" PMx_normed="0.159507" NOx_normed="4.198719" fuel_normed="4.743190" electricity_normed="0"
            traveltime="37.75" CO_perVeh="735.998372" CO2_perVeh="82133.380765" HC_perVeh="5.254593" PMx_perVeh="1.187278" NOx_perVeh="31.252907" fuel_perVeh="35.305644" electricity_perVeh="0"/>
        <edge id="A3" sampledSeconds="203.00" CO_abs="9059.970245" CO2_abs="547511.678593" HC_abs="54.120716" PMx_abs="9.636710" NOx_abs="222.451307" fuel_abs="235.352576" electricity_abs="0"
            CO_normed="1104.986715" CO2_normed="66776.503132" HC_normed="6.600758" PMx_normed="1.175328" NOx_normed="27.130965" fuel_normed="28.704451" electricity_normed="0"
            traveltime="46.60" CO_perVeh="2079.687476" CO2_perVeh="125679.571802" HC_perVeh="12.423239" PMx_perVeh="2.212076" NOx_perVeh="51.062993" fuel_perVeh="54.024438" electricity_perVeh="0"/>
        <edge id="A5" sampledSeconds="128.48" CO_abs="5653.898304" CO2_abs="380428.648773" HC_abs="34.665295" PMx_abs="6.558196" NOx_abs="153.627427" fuel_abs="163.530171" electricity_abs="0"
            CO_normed="865.502993" CO2_normed="58236.302912" HC_normed="5.306589" PMx_normed="1.003934" NOx_normed="23.517402" fuel_normed="25.033321" electricity_normed="0"
            traveltime="33.13" CO_perVeh="1457.972770" CO2_perVeh="98101.271208" HC_perVeh="8.939152" PMx_perVeh="1.691164" NOx_perVeh="39.615959" fuel_perVeh="42.169583" electricity_perVeh="0"/>
        <edge id="A6" sampledSeconds="65.04" CO_abs="3316.660823" CO2_abs="213155.605454" HC_abs="20.067345" PMx_abs="3.721045" NOx_abs="86.549137" fuel_abs="91.626603" electricity_abs="0"
            CO_normed="507.716927" CO2_normed="32630.019970" HC_normed="3.071924" PMx_normed="0.569620" NOx_normed="13.249007" fuel_normed="14.026269" electricity_normed="0"
            traveltime="34.59" CO_perVeh="1764.095527" CO2_perVeh="113375.129456" HC_perVeh="10.673601" PMx_perVeh="1.979183" NOx_perVeh="46.034537" fuel_perVeh="48.735186" electricity_perVeh="0"/>
        <edge id="A7" sampledSeconds="40.00" CO_abs="1662.925338" CO2_abs="115706.395569" HC_abs="10.261492" PMx_abs="1.875531" NOx_abs="45.831811" fuel_abs="49.737427" electricity_abs="0"
            CO_normed="202.816384" CO2_normed="14111.970188" HC_normed="1.251529" PMx_normed="0.228747" NOx_normed="5.589813" fuel_normed="6.066156" electricity_normed="0"
            traveltime="42.35" CO_perVeh="1760.671696" CO2_perVeh="122507.590135" HC_perVeh="10.864660" PMx_perVeh="1.985774" NOx_perVeh="48.525794" fuel_perVeh="52.660981" electricity_perVeh="0"/>
        <edge id="A8" sampledSeconds="115.00" CO_abs="5715.392566" CO2_abs="257790.783023" HC_abs="32.016946" PMx_abs="4.603405" NOx_abs="104.850049" fuel_abs="110.814737" electricity_abs="0"
            CO_normed="697.069934" CO2_normed="31441.095602" HC_normed="3.904902" PMx_normed="0.561448" NOx_normed="12.787891" fuel_normed="13.515366" electricity_normed="0"
            traveltime="58.67" CO_perVeh="2916.092428" CO2_perVeh="131529.329223" HC_perVeh="16.335601" PMx_perVeh="2.348737" NOx_perVeh="53.496314" fuel_perVeh="56.539601" electricity_perVeh="0"/>
        <edge id="A9" sampledSeconds="75.00" CO_abs="3517.399659" CO2_abs="225940.831701" HC_abs="21.296020" PMx_abs="3.865399" NOx_abs="91.152118" fuel_abs="97.122568" electricity_abs="0"
            CO_normed="283.185481" CO2_normed="18190.472864" HC_normed="1.714540" PMx_normed="0.311203" NOx_normed="7.338648" fuel_normed="7.819328" electricity_normed="0"
            traveltime="65.07" CO_perVeh="3051.654646" CO2_perVeh="196023.612766" HC_perVeh="18.476177" PMx_perVeh="3.353574" NOx_perVeh="79.082507" fuel_perVeh="84.262400" electricity_perVeh="0"/>
    </interval>
    <interval begin="60.00" end="118.00" id="emissionEdgeData1">
        <edge id="-A2" sampledSeconds="58.00" CO_abs="4377.049192" CO2_abs="110648.602980" HC_abs="22.499429" PMx_abs="2.188399" NOx_abs="46.295881" fuel_abs="47.565080" electricity_abs="0"
            CO_normed="553.881581" CO2_normed="14001.721351" HC_normed="2.847128" PMx_normed="0.276925" NOx_normed="5.858384" fuel_normed="6.018992" electricity_normed="0"
            traveltime="79.68" CO_perVeh="6013.374270" CO2_perVeh="152013.704446" HC_perVeh="30.910662" PMx_perVeh="3.006515" NOx_perVeh="63.603228" fuel_perVeh="65.346908" electricity_perVeh="0"/>
        <edge id="-A4" sampledSeconds="92.63" CO_abs="1769.459363" CO2_abs="193375.059755" HC_abs="12.511353" PMx_abs="2.879730" NOx_abs="74.092699" fuel_abs="83.123603" electricity_abs="0"
            CO_normed="148.980619" CO2_normed="16281.321101" HC_normed="1.053400" PMx_normed="0.242460" NOx_normed="6.238276" fuel_normed="6.998638" electricity_normed="0"
            traveltime="56.28" CO_perVeh="1075.054989" CO2_perVeh="117487.198115" HC_perVeh="7.601414" PMx_perVeh="1.749612" NOx_perVeh="45.015855" fuel_perVeh="50.502682" electricity_perVeh="0"/>
        <edge id="A1" sampledSeconds="47.06" CO_abs="2186.285628" CO2_abs="148183.646244" HC_abs="13.418863" PMx_abs="2.507623" NOx_abs="59.515214" fuel_abs="63.697936" electricity_abs="0"
            CO_normed="275.842031" CO2_normed="18696.220406" HC_normed="1.693048" PMx_normed="0.316385" NOx_normed="7.508990" fuel_normed="8.036721" electricity_normed="0"
            traveltime="42.11" CO_perVeh="1956.601178" CO2_perVeh="132615.927690" HC_perVeh="12.009119" PMx_perVeh="2.244180" NOx_perVeh="53.262729" fuel_perVeh="57.006027" electricity_perVeh="0"/>
        <edge id="A2" sampledSeconds="434.08" CO_abs="22548.588709" CO2_abs="867906.949437" HC_abs="122.862656" PMx_abs="15.412141" NOx_abs="350.767318" fuel_abs="373.084300" electricity_abs="0"
            CO_normed="2853.348777" CO2_normed="109826.883826" HC_normed="15.547315" PMx_normed="1.950287" NOx_normed="44.386880" fuel_normed="47.210921" electricity_normed="0"
            traveltime="57.46" CO_perVeh="2984.818027" CO2_perVeh="114887.203884" HC_perVeh="16.263664" PMx_perVeh="2.040147" NOx_perVeh="46.432024" fuel_perVeh="49.386184" electricity_perVeh="0"/>
        <edge id="A3" sampledSeconds="422.07" CO_abs="39486.766194" CO2_abs="945809.415417" HC_abs="201.967086" PMx_abs="20.242118" NOx_abs="409.019353" fuel_abs="406.579008" electricity_abs="0"
            CO_normed="4982.015915" CO2_normed="119332.070315" HC_normed="25.482037" PMx_normed="2.553933" NOx_normed="51.605667" fuel_normed="51.297771" electricity_normed="0"
            traveltime="104.28" CO_perVeh="9755.708062" CO2_perVeh="233674.251616" HC_perVeh="49.898539" PMx_perVeh="5.001073" NOx_perVeh="101.053436" fuel_perVeh="100.450518" electricity_perVeh="0"/>
        <edge id="A4" sampledSeconds="68.54" CO_abs="973.836554" CO2_abs="136167.574470" HC_abs="7.513472" PMx_abs="1.806681" NOx_abs="50.338046" fuel_abs="58.532713" electricity_abs="0"
            CO_normed="81.992712" CO2_normed="11464.704944" HC_normed="0.632601" PMx_normed="0.152114" NOx_normed="4.238240" fuel_normed="4.928194" electricity_normed="0"
            traveltime="55.56" CO_perVeh="789.478581" CO2_perVeh="110389.554540" HC_perVeh="6.091089" PMx_perVeh="1.464656" NOx_perVeh="40.808500" fuel_perVeh="47.451826" electricity_perVeh="0"/>
        <edge id="A5" sampledSeconds="113.60" CO_abs="4194.749875" CO2_abs="316658.843331" HC_abs="26.504478" PMx_abs="5.167401" NOx_abs="125.465706" fuel_abs="136.118296" electricity_abs="0"
            CO_normed="664.278059" CO2_normed="50145.903374" HC_normed="4.197233" PMx_normed="0.818306" NOx_normed="19.868674" fuel_normed="21.555611" electricity_normed="0"
            traveltime="32.34" CO_perVeh="1194.290306" CO2_perVeh="90156.170952" HC_perVeh="7.546109" PMx_perVeh="1.471214" NOx_perVeh="35.721433" fuel_perVeh="38.754340" electricity_perVeh="0"/>
        <edge id="A6" sampledSeconds="166.49" CO_abs="6238.212513" CO2_abs="434980.122517" HC_abs="38.576797" PMx_abs="7.325583" NOx_abs="174.253360" fuel_abs="186.979639" electricity_abs="0"
            CO_normed="987.879570" CO2_normed="68883.189757" HC_normed="6.108998" PMx_normed="1.160075" NOx_normed="27.594657" fuel_normed="29.609983" electricity_normed="0"
            traveltime="33.31" CO_perVeh="1248.180992" CO2_perVeh="87033.572494" HC_perVeh="7.718689" PMx_perVeh="1.465749" NOx_perVeh="34.865714" fuel_perVeh="37.412068" electricity_perVeh="0"/>
        <edge id="A7" sampledSeconds="215.00" CO_abs="15607.906129" CO2_abs="479513.382658" HC_abs="82.233539" PMx_abs="9.376486" NOx_abs="200.776122" fuel_abs="206.128062" electricity_abs="0"
            CO_normed="1969.237905" CO2_normed="60499.846759" HC_normed="10.375344" PMx_normed="1.183024" NOx_normed="25.331774" fuel_normed="26.007024" electricity_normed="0"
            traveltime="73.77" CO_perVeh="5355.413470" CO2_perVeh="164531.514169" HC_perVeh="28.216123" PMx_perVeh="3.217277" NOx_perVeh="68.890672" fuel_perVeh="70.727040" electricity_perVeh="0"/>
        <edge id="A8" sampledSeconds="159.00" CO_abs="20413.088417" CO2_abs="406365.307319" HC_abs="102.479161" PMx_abs="9.287710" NOx_abs="179.868546" fuel_abs="174.687951" electricity_abs="0"
            CO_normed="2575.504179" CO2_normed="51270.808512" HC_normed="12.929720" PMx_normed="1.171823" NOx_normed="22.693881" fuel_normed="22.040249" electricity_normed="0"
            traveltime="166.13" CO_perVeh="21328.583163" CO2_perVeh="424590.148964" HC_perVeh="107.075190" PMx_perVeh="9.704249" NOx_perVeh="187.935366" fuel_perVeh="182.522430" electricity_perVeh="0"/>
        <edge id="A9" sampledSeconds="211.73" CO_abs="6519.878229" CO2_abs="511682.587916" HC_abs="41.603264" PMx_abs="8.161416" NOx_abs="201.094326" fuel_abs="219.950894" electricity_abs="0"
            CO_normed="543.015226" CO2_normed="42616.046837" HC_normed="3.464974" PMx_normed="0.679733" NOx_normed="16.748362" fuel_normed="18.318852" electricity_normed="0"
            traveltime="60.41" CO_perVeh="1860.218742" CO2_perVeh="145990.692844" HC_perVeh="11.870033" PMx_perVeh="2.328574" NOx_perVeh="57.375218" fuel_perVeh="62.755279" electricity_perVeh="0"/>
    </interval>
</meandata>
