<?xml version="1.0" encoding="UTF-8"?>

<!-- generated on 25/05/2017 13:37:18 by SUMO gui Version 0.29.0
<?xml version="1.0" encoding="UTF-8"?>

<configuration xmlns:xsi="http://www.w3.org/2001/XMLSchema-instance" xsi:noNamespaceSchemaLocation="http://sumo.dlr.de/xsd/sumo-gui.exeConfiguration.xsd">

    <input>
        <net-file value="multiRoad.net.xml"/>
        <route-files value="multiRoadRandomDemand.rou.xml"/>
        <additional-files value="multiRoadAdditional.add.xml"/>
    </input>

    <output>
        <tripinfo-output value="tripinfo.xml"/>
    </output>

    <time>
        <begin value="0"/>
        <end value="7200"/>
    </time>

    <traci_server>
        <remote-port value="52913"/>
    </traci_server>

    <gui_only>
        <gui-settings-file value="multiRoad.settings.xml"/>
    </gui_only>

</configuration>
-->

<meandata xmlns:xsi="http://www.w3.org/2001/XMLSchema-instance" xsi:noNamespaceSchemaLocation="http://sumo.dlr.de/xsd/meandata_file.xsd">
    <interval begin="0.00" end="60.00" id="emissionEdgeData1">
        <edge id="-A4" sampledSeconds="21.15" CO_abs="276.366484" CO2_abs="41324.513321" HC_abs="2.203923" PMx_abs="0.519594" NOx_abs="15.089975" fuel_abs="17.763701" electricity_abs="0"
            CO_normed="22.493203" CO2_normed="3363.362452" HC_normed="0.179375" PMx_normed="0.042289" NOx_normed="1.228159" fuel_normed="1.445771" electricity_normed="0"
            traveltime="56.41" CO_perVeh="737.219063" CO2_perVeh="110234.853871" HC_perVeh="5.879057" PMx_perVeh="1.386040" NOx_perVeh="40.253135" fuel_perVeh="47.385409" electricity_perVeh="0"/>
        <edge id="A1" sampledSeconds="70.00" CO_abs="2426.257184" CO2_abs="173605.154459" HC_abs="15.099095" PMx_abs="2.849863" NOx_abs="68.973337" fuel_abs="74.625615" electricity_abs="0"
            CO_normed="295.915095" CO2_normed="21173.512080" HC_normed="1.841540" PMx_normed="0.347580" NOx_normed="8.412237" fuel_normed="9.101610" electricity_normed="0"
            traveltime="49.43" CO_perVeh="1713.341239" CO2_perVeh="122594.122516" HC_perVeh="10.662474" PMx_perVeh="2.012478" NOx_perVeh="48.706651" fuel_perVeh="52.698100" electricity_perVeh="0"/>
        <edge id="A2" sampledSeconds="35.04" CO_abs="705.793439" CO2_abs="73337.114902" HC_abs="4.904473" PMx_abs="1.065293" NOx_abs="27.954165" fuel_abs="31.524534" electricity_abs="0"
            CO_normed="86.335589" CO2_normed="8970.900905" HC_normed="0.599936" PMx_normed="0.130311" NOx_normed="3.419470" fuel_normed="3.856212" electricity_normed="0"
            traveltime="38.00" CO_perVeh="765.483052" CO2_perVeh="79539.303499" HC_perVeh="5.319249" PMx_perVeh="1.155386" NOx_perVeh="30.318275" fuel_perVeh="34.190593" electricity_perVeh="0"/>
        <edge id="A3" sampledSeconds="180.60" CO_abs="7531.371045" CO2_abs="526916.468136" HC_abs="46.643120" PMx_abs="8.987936" NOx_abs="211.952815" fuel_abs="226.498995" electricity_abs="0"
            CO_normed="918.553232" CO2_normed="64264.636829" HC_normed="5.688763" PMx_normed="1.096201" NOx_normed="25.850531" fuel_normed="27.624636" electricity_normed="0"
            traveltime="41.13" CO_perVeh="1714.988790" CO2_perVeh="119985.568422" HC_perVeh="10.621230" PMx_perVeh="2.046667" NOx_perVeh="48.264347" fuel_perVeh="51.576696" electricity_perVeh="0"/>
        <edge id="A4" sampledSeconds="12.03" CO_abs="1005.235402" CO2_abs="60541.523594" HC_abs="6.019990" PMx_abs="1.193011" NOx_abs="25.722640" fuel_abs="26.024068" electricity_abs="0"
            CO_normed="81.815144" CO2_normed="4927.416462" HC_normed="0.489961" PMx_normed="0.097098" NOx_normed="2.093541" fuel_normed="2.118074" electricity_normed="0"
            traveltime="65.83" CO_perVeh="5502.121065" CO2_perVeh="331371.926965" HC_perVeh="32.950208" PMx_perVeh="6.529903" NOx_perVeh="140.791979" fuel_perVeh="142.441834" electricity_perVeh="0"/>
        <edge id="A5" sampledSeconds="136.05" CO_abs="5897.709263" CO2_abs="381315.241259" HC_abs="35.799685" PMx_abs="6.644138" NOx_abs="154.653780" fuel_abs="163.911347" electricity_abs="0"
            CO_normed="902.825758" CO2_normed="58372.023155" HC_normed="5.480243" PMx_normed="1.017090" NOx_normed="23.674517" fuel_normed="25.091672" electricity_normed="0"
            traveltime="35.10" CO_perVeh="1521.429285" CO2_perVeh="98367.713446" HC_perVeh="9.235228" PMx_perVeh="1.713985" NOx_perVeh="39.895963" fuel_perVeh="42.284133" electricity_perVeh="0"/>
        <edge id="A6" sampledSeconds="64.27" CO_abs="3237.380534" CO2_abs="205632.792683" HC_abs="19.528513" PMx_abs="3.616823" NOx_abs="83.705265" fuel_abs="88.392849" electricity_abs="0"
            CO_normed="495.580640" CO2_normed="31478.422148" HC_normed="2.989439" PMx_normed="0.553666" NOx_normed="12.813665" fuel_normed="13.531244" electricity_normed="0"
            traveltime="34.00" CO_perVeh="1712.773060" CO2_perVeh="108792.372098" HC_perVeh="10.331782" PMx_perVeh="1.913521" NOx_perVeh="44.285224" fuel_perVeh="46.765244" electricity_perVeh="0"/>
        <edge id="A7" sampledSeconds="40.00" CO_abs="1689.576236" CO2_abs="118843.942189" HC_abs="10.454377" PMx_abs="1.912442" NOx_abs="46.951332" fuel_abs="51.086138" electricity_abs="0"
            CO_normed="206.066824" CO2_normed="14494.636714" HC_normed="1.275054" PMx_normed="0.233248" NOx_normed="5.726354" fuel_normed="6.230650" electricity_normed="0"
            traveltime="42.47" CO_perVeh="1794.039038" CO2_perVeh="126191.803169" HC_perVeh="11.100749" PMx_perVeh="2.030684" NOx_perVeh="49.854230" fuel_perVeh="54.244682" electricity_perVeh="0"/>
        <edge id="A8" sampledSeconds="102.07" CO_abs="3591.109226" CO2_abs="233893.002378" HC_abs="21.782513" PMx_abs="3.912978" NOx_abs="93.446625" fuel_abs="100.540999" electricity_abs="0"
            CO_normed="437.984660" CO2_normed="28526.435903" HC_normed="2.656674" PMx_normed="0.477241" NOx_normed="11.397088" fuel_normed="12.262344" electricity_normed="0"
            traveltime="51.05" CO_perVeh="1795.919674" CO2_perVeh="116970.278052" HC_perVeh="10.893471" PMx_perVeh="1.956887" NOx_perVeh="46.732812" fuel_perVeh="50.280720" electricity_perVeh="0"/>
        <edge id="A9" sampledSeconds="75.00" CO_abs="3399.069021" CO2_abs="222187.208231" HC_abs="20.669916" PMx_abs="3.825545" NOx_abs="89.807997" fuel_abs="95.508951" electricity_abs="0"
            CO_normed="273.658693" CO2_normed="17888.269029" HC_normed="1.664133" PMx_normed="0.307994" NOx_normed="7.230432" fuel_normed="7.689416" electricity_normed="0"
            traveltime="64.24" CO_perVeh="2911.437255" CO2_perVeh="190312.144786" HC_perVeh="17.704602" PMx_perVeh="3.276731" NOx_perVeh="76.924106" fuel_perVeh="81.807200" electricity_perVeh="0"/>
    </interval>
    <interval begin="60.00" end="120.00" id="emissionEdgeData1">
        <edge id="-A1" sampledSeconds="39.54" CO_abs="1117.414964" CO2_abs="110492.512704" HC_abs="7.651282" PMx_abs="1.707528" NOx_abs="42.910592" fuel_abs="47.495949" electricity_abs="0"
            CO_normed="136.283968" CO2_normed="13476.066190" HC_normed="0.933178" PMx_normed="0.208256" NOx_normed="5.233531" fuel_normed="5.792778" electricity_normed="0"
            traveltime="37.80" CO_perVeh="1068.370639" CO2_perVeh="105642.899214" HC_perVeh="7.315461" PMx_perVeh="1.632584" NOx_perVeh="41.027209" fuel_perVeh="45.411310" electricity_perVeh="0"/>
        <edge id="-A2" sampledSeconds="63.44" CO_abs="1723.638606" CO2_abs="160366.077237" HC_abs="11.580217" PMx_abs="2.510876" NOx_abs="62.609871" fuel_abs="68.934463" electricity_abs="0"
            CO_normed="210.842643" CO2_normed="19616.645534" HC_normed="1.416540" PMx_normed="0.307141" NOx_normed="7.658700" fuel_normed="8.432350" electricity_normed="0"
            traveltime="40.52" CO_perVeh="1100.884317" CO2_perVeh="102425.472971" HC_perVeh="7.396260" PMx_perVeh="1.603691" NOx_perVeh="39.988792" fuel_perVeh="44.028295" electricity_perVeh="0"/>
        <edge id="-A4" sampledSeconds="233.84" CO_abs="4556.663498" CO2_abs="469227.029903" HC_abs="31.617674" PMx_abs="7.110945" NOx_abs="181.011567" fuel_abs="201.700477" electricity_abs="0"
            CO_normed="370.862466" CO2_normed="38189.937323" HC_normed="2.573332" PMx_normed="0.578753" NOx_normed="14.732358" fuel_normed="16.416208" electricity_normed="0"
            traveltime="64.87" CO_perVeh="1264.099664" CO2_perVeh="130171.940725" HC_perVeh="8.771306" PMx_perVeh="1.972703" NOx_perVeh="50.215835" fuel_perVeh="55.955307" electricity_perVeh="0"/>
        <edge id="-A8" sampledSeconds="14.19" CO_abs="492.764460" CO2_abs="44869.231665" HC_abs="3.280877" PMx_abs="0.730363" NOx_abs="17.719796" fuel_abs="19.287310" electricity_abs="0"
            CO_normed="60.099334" CO2_normed="5472.413660" HC_normed="0.400148" PMx_normed="0.089078" NOx_normed="2.161170" fuel_normed="2.352350" electricity_normed="0"
            traveltime="37.90" CO_perVeh="1315.800627" CO2_perVeh="119811.731607" HC_perVeh="8.760736" PMx_perVeh="1.950246" NOx_perVeh="47.316153" fuel_perVeh="51.501796" electricity_perVeh="0"/>
        <edge id="-A9" sampledSeconds="18.24" CO_abs="850.901639" CO2_abs="58358.102811" HC_abs="5.255700" PMx_abs="1.066529" NOx_abs="24.058033" fuel_abs="25.085561" electricity_abs="0"
            CO_normed="68.506002" CO2_normed="4698.404789" HC_normed="0.423136" PMx_normed="0.085866" NOx_normed="1.936910" fuel_normed="2.019636" electricity_normed="0"
            traveltime="61.05" CO_perVeh="2848.100555" CO2_perVeh="195333.676016" HC_perVeh="17.591647" PMx_perVeh="3.569839" NOx_perVeh="80.525992" fuel_perVeh="83.965288" electricity_perVeh="0"/>
        <edge id="A1" sampledSeconds="150.00" CO_abs="14417.683338" CO2_abs="347300.889848" HC_abs="73.791455" PMx_abs="7.430386" NOx_abs="150.280469" fuel_abs="149.295594" electricity_abs="0"
            CO_normed="1758.432768" CO2_normed="42358.071737" HC_normed="8.999873" PMx_normed="0.906237" NOx_normed="18.328749" fuel_normed="18.208630" electricity_normed="0"
            traveltime="126.14" CO_perVeh="12124.321864" CO2_perVeh="292057.168502" HC_perVeh="62.053752" PMx_perVeh="6.248465" NOx_perVeh="126.375974" fuel_perVeh="125.547759" electricity_perVeh="0"/>
        <edge id="A2" sampledSeconds="305.31" CO_abs="7311.430934" CO2_abs="646461.546225" HC_abs="48.330655" PMx_abs="10.110835" NOx_abs="252.189093" fuel_abs="277.886290" electricity_abs="0"
            CO_normed="894.364640" CO2_normed="79077.864982" HC_normed="5.912007" PMx_normed="1.236799" NOx_normed="30.848819" fuel_normed="33.992207" electricity_normed="0"
            traveltime="44.23" CO_perVeh="1059.092717" CO2_perVeh="93642.779628" HC_perVeh="7.000907" PMx_perVeh="1.464599" NOx_perVeh="36.530692" fuel_perVeh="40.253043" electricity_perVeh="0"/>
        <edge id="A3" sampledSeconds="254.31" CO_abs="8013.121254" CO2_abs="497011.589258" HC_abs="48.085726" PMx_abs="8.433792" NOx_abs="199.734908" fuel_abs="213.644992" electricity_abs="0"
            CO_normed="977.309229" CO2_normed="60617.329719" HC_normed="5.864709" PMx_normed="1.028616" NOx_normed="24.360391" fuel_normed="26.056915" electricity_normed="0"
            traveltime="56.51" CO_perVeh="1780.636766" CO2_perVeh="110443.493974" HC_perVeh="10.685376" PMx_perVeh="1.874116" NOx_perVeh="44.384118" fuel_perVeh="47.475149" electricity_perVeh="0"/>
        <edge id="A4" sampledSeconds="197.23" CO_abs="2717.189371" CO2_abs="351088.131491" HC_abs="20.445501" PMx_abs="4.853844" NOx_abs="131.399390" fuel_abs="150.917882" electricity_abs="0"
            CO_normed="221.149433" CO2_normed="28574.725840" HC_normed="1.664040" PMx_normed="0.395050" NOx_normed="10.694470" fuel_normed="12.283062" electricity_normed="0"
            traveltime="61.57" CO_perVeh="848.257138" CO2_perVeh="109603.333739" HC_perVeh="6.382714" PMx_perVeh="1.515282" NOx_perVeh="41.020501" fuel_perVeh="47.113820" electricity_perVeh="0"/>
        <edge id="A5" sampledSeconds="121.24" CO_abs="4547.353972" CO2_abs="322392.806723" HC_abs="28.237760" PMx_abs="5.311716" NOx_abs="128.215613" fuel_abs="138.583228" electricity_abs="0"
            CO_normed="696.112357" CO2_normed="49352.132679" HC_normed="4.322657" PMx_normed="0.813121" NOx_normed="19.627342" fuel_normed="21.214424" electricity_normed="0"
            traveltime="33.70" CO_perVeh="1263.796968" CO2_perVeh="89599.150234" HC_perVeh="7.847816" PMx_perVeh="1.476228" NOx_perVeh="35.633580" fuel_perVeh="38.514940" electricity_perVeh="0"/>
        <edge id="A6" sampledSeconds="225.49" CO_abs="9664.772189" CO2_abs="510065.892696" HC_abs="55.953365" PMx_abs="8.996784" NOx_abs="207.461317" fuel_abs="219.257191" electricity_abs="0"
            CO_normed="1479.490576" CO2_normed="78081.269452" HC_normed="8.565383" PMx_normed="1.377234" NOx_normed="31.758334" fuel_normed="33.564055" electricity_normed="0"
            traveltime="43.89" CO_perVeh="1881.053876" CO2_perVeh="99274.085887" HC_perVeh="10.890199" PMx_perVeh="1.751043" NOx_perVeh="40.378180" fuel_perVeh="42.674010" electricity_perVeh="0"/>
        <edge id="A7" sampledSeconds="173.27" CO_abs="7275.533028" CO2_abs="376174.840070" HC_abs="41.904474" PMx_abs="6.629585" NOx_abs="152.794743" fuel_abs="161.702860" electricity_abs="0"
            CO_normed="887.350303" CO2_normed="45879.643062" HC_normed="5.110821" PMx_normed="0.808568" NOx_normed="18.635399" fuel_normed="19.721865" electricity_normed="0"
            traveltime="56.67" CO_perVeh="2379.635709" CO2_perVeh="123036.907220" HC_perVeh="13.705853" PMx_perVeh="2.168363" NOx_perVeh="49.975146" fuel_perVeh="52.888757" electricity_perVeh="0"/>
        <edge id="A8" sampledSeconds="45.00" CO_abs="1275.909901" CO2_abs="106794.302803" HC_abs="8.258674" PMx_abs="1.657865" NOx_abs="41.595353" fuel_abs="45.906393" electricity_abs="0"
            CO_normed="155.614583" CO2_normed="13025.019145" HC_normed="1.007258" PMx_normed="0.202199" NOx_normed="5.073120" fuel_normed="5.598910" electricity_normed="0"
            traveltime="45.57" CO_perVeh="1291.932163" CO2_perVeh="108135.374281" HC_perVeh="8.362383" PMx_perVeh="1.678683" NOx_perVeh="42.117687" fuel_perVeh="46.482863" electricity_perVeh="0"/>
        <edge id="A9" sampledSeconds="233.58" CO_abs="6769.763510" CO2_abs="532440.717327" HC_abs="43.241808" PMx_abs="8.492959" NOx_abs="209.321032" fuel_abs="228.873927" electricity_abs="0"
            CO_normed="545.032956" CO2_normed="42866.746782" HC_normed="3.481393" PMx_normed="0.683767" NOx_normed="16.852414" fuel_normed="18.426616" electricity_normed="0"
            traveltime="63.99" CO_perVeh="1854.505314" CO2_perVeh="145856.518943" HC_perVeh="11.845637" PMx_perVeh="2.326557" NOx_perVeh="57.341289" fuel_perVeh="62.697598" electricity_perVeh="0"/>
    </interval>
    <interval begin="120.00" end="180.00" id="emissionEdgeData1">
        <edge id="-A1" sampledSeconds="44.89" CO_abs="991.479831" CO2_abs="110953.222052" HC_abs="7.075686" PMx_abs="1.619786" NOx_abs="42.297515" fuel_abs="47.694040" electricity_abs="0"
            CO_normed="120.924464" CO2_normed="13532.255967" HC_normed="0.862976" PMx_normed="0.197555" NOx_normed="5.158758" fuel_normed="5.816937" electricity_normed="0"
            traveltime="37.61" CO_perVeh="830.666262" CO2_perVeh="92957.108478" HC_perVeh="5.928042" PMx_perVeh="1.357064" NOx_perVeh="35.437049" fuel_perVeh="39.958281" electricity_perVeh="0"/>
        <edge id="-A2" sampledSeconds="130.08" CO_abs="5647.986955" CO2_abs="243664.847648" HC_abs="31.405586" PMx_abs="4.509683" NOx_abs="100.290571" fuel_abs="104.742471" electricity_abs="0"
            CO_normed="690.885254" CO2_normed="29806.097572" HC_normed="3.841662" PMx_normed="0.551643" NOx_normed="12.267960" fuel_normed="12.812535" electricity_normed="0"
            traveltime="71.76" CO_perVeh="3115.997156" CO2_perVeh="134430.015196" HC_perVeh="17.326477" PMx_perVeh="2.487994" NOx_perVeh="55.330357" fuel_perVeh="57.786472" electricity_perVeh="0"/>
        <edge id="-A3" sampledSeconds="19.79" CO_abs="618.706330" CO2_abs="55734.291461" HC_abs="4.119210" PMx_abs="0.896177" NOx_abs="21.957297" fuel_abs="23.957745" electricity_abs="0"
            CO_normed="75.459660" CO2_normed="6797.555621" HC_normed="0.502394" PMx_normed="0.109301" NOx_normed="2.677991" fuel_normed="2.921973" electricity_normed="0"
            traveltime="38.29" CO_perVeh="1197.325447" CO2_perVeh="107857.447457" HC_perVeh="7.971528" PMx_perVeh="1.734288" NOx_perVeh="42.491936" fuel_perVeh="46.363221" electricity_perVeh="0"/>
        <edge id="-A4" sampledSeconds="475.13" CO_abs="9586.114546" CO2_abs="949430.884554" HC_abs="65.563945" PMx_abs="14.134035" NOx_abs="363.848841" fuel_abs="408.120194" electricity_abs="0"
            CO_normed="780.204656" CO2_normed="77273.267869" HC_normed="5.336186" PMx_normed="1.150356" NOx_normed="29.613308" fuel_normed="33.216511" electricity_normed="0"
            traveltime="64.90" CO_perVeh="1309.393343" CO2_perVeh="129685.335358" HC_perVeh="8.955557" PMx_perVeh="1.930606" NOx_perVeh="49.699098" fuel_perVeh="55.746242" electricity_perVeh="0"/>
        <edge id="-A5" sampledSeconds="40.28" CO_abs="1273.006302" CO2_abs="106303.852802" HC_abs="8.302334" PMx_abs="1.822382" NOx_abs="42.738884" fuel_abs="45.695293" electricity_abs="0"
            CO_normed="194.872760" CO2_normed="16273.073525" HC_normed="1.270927" PMx_normed="0.278972" NOx_normed="6.542500" fuel_normed="6.995070" electricity_normed="0"
            traveltime="30.52" CO_perVeh="964.560316" CO2_perVeh="80546.716654" HC_perVeh="6.290701" PMx_perVeh="1.380824" NOx_perVeh="32.383368" fuel_perVeh="34.623447" electricity_perVeh="0"/>
        <edge id="-A7" sampledSeconds="35.00" CO_abs="371.182415" CO2_abs="70959.299197" HC_abs="3.302876" PMx_abs="0.822494" NOx_abs="25.269493" fuel_abs="30.502508" electricity_abs="0"
            CO_normed="45.270749" CO2_normed="8654.452590" HC_normed="0.402831" PMx_normed="0.100314" NOx_normed="3.081959" fuel_normed="3.720196" electricity_normed="0"
            traveltime="36.81" CO_perVeh="390.315874" CO2_perVeh="74617.060988" HC_perVeh="3.473130" PMx_perVeh="0.864892" NOx_perVeh="26.572067" fuel_perVeh="32.074831" electricity_perVeh="0"/>
        <edge id="-A8" sampledSeconds="23.55" CO_abs="256.873636" CO2_abs="38849.024401" HC_abs="2.063974" PMx_abs="0.497942" NOx_abs="14.226368" fuel_abs="16.699576" electricity_abs="0"
            CO_normed="31.329237" CO2_normed="4738.167424" HC_normed="0.251730" PMx_normed="0.060731" NOx_normed="1.735099" fuel_normed="2.036741" electricity_normed="0"
            traveltime="37.05" CO_perVeh="404.101696" CO2_perVeh="61115.484255" HC_perVeh="3.246949" PMx_perVeh="0.783339" NOx_perVeh="22.380262" fuel_perVeh="26.270999" electricity_perVeh="0"/>
        <edge id="-A9" sampledSeconds="188.36" CO_abs="3545.000654" CO2_abs="397049.149273" HC_abs="25.347406" PMx_abs="5.840370" NOx_abs="151.592492" fuel_abs="170.674371" electricity_abs="0"
            CO_normed="285.407634" CO2_normed="31966.385718" HC_normed="2.040717" PMx_normed="0.470208" NOx_normed="12.204696" fuel_normed="13.740976" electricity_normed="0"
            traveltime="56.79" CO_perVeh="1068.727068" CO2_perVeh="119700.167768" HC_perVeh="7.641595" PMx_perVeh="1.760722" NOx_perVeh="45.701261" fuel_perVeh="51.453960" electricity_perVeh="0"/>
        <edge id="A1" sampledSeconds="308.00" CO_abs="27434.068777" CO2_abs="636906.468034" HC_abs="139.832497" PMx_abs="13.755599" NOx_abs="276.115718" fuel_abs="273.790161" electricity_abs="0"
            CO_normed="3345.958180" CO2_normed="77679.414741" HC_normed="17.054477" PMx_normed="1.677683" NOx_normed="33.676071" fuel_normed="33.392438" electricity_normed="0"
            traveltime="110.73" CO_perVeh="9863.290480" CO2_perVeh="228985.118963" HC_perVeh="50.273568" PMx_perVeh="4.945510" NOx_perVeh="99.271076" fuel_perVeh="98.434976" electricity_perVeh="0"/>
        <edge id="A2" sampledSeconds="485.10" CO_abs="11124.791329" CO2_abs="744251.976964" HC_abs="67.877107" PMx_abs="11.717013" NOx_abs="290.759837" fuel_abs="319.924434" electricity_abs="0"
            CO_normed="1360.830744" CO2_normed="91039.997182" HC_normed="8.303010" PMx_normed="1.433274" NOx_normed="35.566953" fuel_normed="39.134487" electricity_normed="0"
            traveltime="55.57" CO_perVeh="1274.400976" CO2_perVeh="85257.818999" HC_perVeh="7.775665" PMx_perVeh="1.342243" NOx_perVeh="33.308006" fuel_perVeh="36.648958" electricity_perVeh="0"/>
        <edge id="A3" sampledSeconds="389.21" CO_abs="13571.692838" CO2_abs="889635.129309" HC_abs="82.497892" PMx_abs="14.863576" NOx_abs="355.291544" fuel_abs="382.417584" electricity_abs="0"
            CO_normed="1655.252709" CO2_normed="108503.115680" HC_normed="10.061741" PMx_normed="1.812815" NOx_normed="43.332641" fuel_normed="46.641031" electricity_normed="0"
            traveltime="47.98" CO_perVeh="1673.171901" CO2_perVeh="109677.732778" HC_perVeh="10.170666" PMx_perVeh="1.832440" NOx_perVeh="43.801745" fuel_perVeh="47.145950" electricity_perVeh="0"/>
        <edge id="A4" sampledSeconds="409.27" CO_abs="25800.702575" CO2_abs="752854.484599" HC_abs="135.072668" PMx_abs="14.848519" NOx_abs="315.371621" fuel_abs="323.629996" electricity_abs="0"
            CO_normed="2099.894404" CO2_normed="61274.103467" HC_normed="10.993435" PMx_normed="1.208507" NOx_normed="25.667793" fuel_normed="26.339935" electricity_normed="0"
            traveltime="120.58" CO_perVeh="7601.573697" CO2_perVeh="221810.969352" HC_perVeh="39.796003" PMx_perVeh="4.374769" NOx_perVeh="92.916873" fuel_perVeh="95.350011" electricity_perVeh="0"/>
        <edge id="A5" sampledSeconds="116.19" CO_abs="4812.218601" CO2_abs="333945.547487" HC_abs="29.702448" PMx_abs="5.548120" NOx_abs="133.276802" fuel_abs="143.549266" electricity_abs="0"
            CO_normed="736.658033" CO2_normed="51120.634900" HC_normed="4.546873" PMx_normed="0.849310" NOx_normed="20.402113" fuel_normed="21.974629" electricity_normed="0"
            traveltime="34.93" CO_perVeh="1446.465140" CO2_perVeh="100377.940619" HC_perVeh="8.928014" PMx_perVeh="1.667664" NOx_perVeh="40.060576" fuel_perVeh="43.148291" electricity_perVeh="0"/>
        <edge id="A6" sampledSeconds="77.66" CO_abs="2727.655627" CO2_abs="198199.056418" HC_abs="17.081974" PMx_abs="3.412516" NOx_abs="79.925153" fuel_abs="85.197214" electricity_abs="0"
            CO_normed="417.551569" CO2_normed="30340.460225" HC_normed="2.614921" PMx_normed="0.522390" NOx_normed="12.235002" fuel_normed="13.042053" electricity_normed="0"
            traveltime="34.67" CO_perVeh="1217.552750" CO2_perVeh="88470.774604" HC_perVeh="7.624938" PMx_perVeh="1.523256" NOx_perVeh="35.676458" fuel_perVeh="38.029765" electricity_perVeh="0"/>
        <edge id="A7" sampledSeconds="90.00" CO_abs="5287.124658" CO2_abs="312013.927988" HC_abs="31.426816" PMx_abs="5.688087" NOx_abs="128.704099" fuel_abs="134.121590" electricity_abs="0"
            CO_normed="644.836832" CO2_normed="38054.346335" HC_normed="3.832928" PMx_normed="0.693740" NOx_normed="15.697217" fuel_normed="16.357954" electricity_normed="0"
            traveltime="44.41" CO_perVeh="2608.974999" CO2_perVeh="153965.830220" HC_perVeh="15.507820" PMx_perVeh="2.806833" NOx_perVeh="63.510093" fuel_perVeh="66.183398" electricity_perVeh="0"/>
        <edge id="A8" sampledSeconds="77.24" CO_abs="4996.667046" CO2_abs="180552.281462" HC_abs="26.993162" PMx_abs="3.511692" NOx_abs="75.850823" fuel_abs="77.613116" electricity_abs="0"
            CO_normed="609.411572" CO2_normed="22020.808797" HC_normed="3.292184" PMx_normed="0.428299" NOx_normed="9.251041" fuel_normed="9.465976" electricity_normed="0"
            traveltime="72.08" CO_perVeh="4662.665999" CO2_perVeh="168483.306187" HC_perVeh="25.188810" PMx_perVeh="3.276953" NOx_perVeh="70.780592" fuel_perVeh="72.425085" electricity_perVeh="0"/>
        <edge id="A9" sampledSeconds="450.88" CO_abs="20309.923266" CO2_abs="845918.261062" HC_abs="112.140200" PMx_abs="14.988727" NOx_abs="342.867953" fuel_abs="363.630585" electricity_abs="0"
            CO_normed="1635.149810" CO2_normed="68104.791229" HC_normed="9.028396" PMx_normed="1.206741" NOx_normed="27.604263" fuel_normed="29.275861" electricity_normed="0"
            traveltime="96.74" CO_perVeh="4357.906987" CO2_perVeh="181508.962501" HC_perVeh="24.061960" PMx_perVeh="3.216136" NOx_perVeh="73.569291" fuel_perVeh="78.024336" electricity_perVeh="0"/>
    </interval>
    <interval begin="180.00" end="240.00" id="emissionEdgeData1">
        <edge id="-A1" sampledSeconds="151.48" CO_abs="3199.571784" CO2_abs="353231.567667" HC_abs="22.739095" PMx_abs="5.161809" NOx_abs="134.766025" fuel_abs="151.839152" electricity_abs="0"
            CO_normed="390.231339" CO2_normed="43081.398638" HC_normed="2.773342" PMx_normed="0.629553" NOx_normed="16.436551" fuel_normed="18.518852" electricity_normed="0"
            traveltime="37.73" CO_perVeh="796.908331" CO2_perVeh="87978.391551" HC_perVeh="5.663562" PMx_perVeh="1.285637" NOx_perVeh="33.565794" fuel_perVeh="37.818150" electricity_perVeh="0"/>
        <edge id="-A2" sampledSeconds="464.80" CO_abs="11004.381476" CO2_abs="807414.335529" HC_abs="68.795689" PMx_abs="12.800816" NOx_abs="315.600198" fuel_abs="347.074415" electricity_abs="0"
            CO_normed="1346.101710" CO2_normed="98766.279575" HC_normed="8.415375" PMx_normed="1.565849" NOx_normed="38.605529" fuel_normed="42.455586" electricity_normed="0"
            traveltime="53.01" CO_perVeh="1255.064931" CO2_perVeh="92086.721964" HC_perVeh="7.846243" PMx_perVeh="1.459951" NOx_perVeh="35.994639" fuel_perVeh="39.584317" electricity_perVeh="0"/>
        <edge id="-A3" sampledSeconds="32.23" CO_abs="783.855419" CO2_abs="79106.475056" HC_abs="5.367135" PMx_abs="1.192158" NOx_abs="30.506748" fuel_abs="34.004478" electricity_abs="0"
            CO_normed="95.601840" CO2_normed="9648.111603" HC_normed="0.654595" PMx_normed="0.145400" NOx_normed="3.720713" fuel_normed="4.147309" electricity_normed="0"
            traveltime="38.06" CO_perVeh="925.614012" CO2_perVeh="93412.713598" HC_perVeh="6.337770" PMx_perVeh="1.407757" NOx_perVeh="36.023829" fuel_perVeh="40.154116" electricity_perVeh="0"/>
        <edge id="-A4" sampledSeconds="724.52" CO_abs="42062.511387" CO2_abs="1410527.540736" HC_abs="224.450944" PMx_abs="26.942523" NOx_abs="586.854084" fuel_abs="606.340087" electricity_abs="0"
            CO_normed="3423.427405" CO2_normed="114801.481883" HC_normed="18.267847" PMx_normed="2.192826" NOx_normed="47.763490" fuel_normed="49.349437" electricity_normed="0"
            traveltime="112.53" CO_perVeh="6532.849419" CO2_perVeh="219073.082457" HC_perVeh="34.860121" PMx_perVeh="4.184521" NOx_perVeh="91.145993" fuel_perVeh="94.172420" electricity_perVeh="0"/>
        <edge id="-A5" sampledSeconds="50.88" CO_abs="816.935601" CO2_abs="104243.753395" HC_abs="6.129985" PMx_abs="1.450450" NOx_abs="39.101814" fuel_abs="44.809958" electricity_abs="0"
            CO_normed="125.057115" CO2_normed="15957.711963" HC_normed="0.938383" PMx_normed="0.222036" NOx_normed="5.985735" fuel_normed="6.859542" electricity_normed="0"
            traveltime="29.81" CO_perVeh="478.674859" CO2_perVeh="61080.535440" HC_perVeh="3.591801" PMx_perVeh="0.849876" NOx_perVeh="22.911299" fuel_perVeh="26.255926" electricity_perVeh="0"/>
        <edge id="-A6" sampledSeconds="30.13" CO_abs="389.452166" CO2_abs="53670.010080" HC_abs="3.006730" PMx_abs="0.716668" NOx_abs="19.891514" fuel_abs="23.070479" electricity_abs="0"
            CO_normed="59.617630" CO2_normed="8215.845401" HC_normed="0.460272" PMx_normed="0.109708" NOx_normed="3.045008" fuel_normed="3.531646" electricity_normed="0"
            traveltime="29.75" CO_perVeh="384.546609" CO2_perVeh="52993.980226" HC_perVeh="2.968857" PMx_perVeh="0.707640" NOx_perVeh="19.640959" fuel_perVeh="22.779882" electricity_perVeh="0"/>
        <edge id="-A7" sampledSeconds="82.69" CO_abs="3068.214075" CO2_abs="258574.080210" HC_abs="20.025381" PMx_abs="4.313731" NOx_abs="103.082151" fuel_abs="111.149648" electricity_abs="0"
            CO_normed="374.210478" CO2_normed="31536.629358" HC_normed="2.442368" PMx_normed="0.526118" NOx_normed="12.572272" fuel_normed="13.556213" electricity_normed="0"
            traveltime="38.76" CO_perVeh="1437.950271" CO2_perVeh="121183.417976" HC_perVeh="9.385102" PMx_perVeh="2.021674" NOx_perVeh="48.310517" fuel_perVeh="52.091432" electricity_perVeh="0"/>
        <edge id="-A8" sampledSeconds="142.95" CO_abs="3877.686379" CO2_abs="386699.710288" HC_abs="26.679806" PMx_abs="6.038971" NOx_abs="150.565378" fuel_abs="166.225354" electricity_abs="0"
            CO_normed="472.936646" CO2_normed="47163.294272" HC_normed="3.253966" PMx_normed="0.736535" NOx_normed="18.363498" fuel_normed="20.273445" electricity_normed="0"
            traveltime="37.73" CO_perVeh="1023.595114" CO2_perVeh="102077.345998" HC_perVeh="7.042684" PMx_perVeh="1.594111" NOx_perVeh="39.744830" fuel_perVeh="43.878603" electricity_perVeh="0"/>
        <edge id="-A9" sampledSeconds="60.16" CO_abs="1217.754633" CO2_abs="140937.750949" HC_abs="8.799559" PMx_abs="2.055545" NOx_abs="53.632355" fuel_abs="60.583081" electricity_abs="0"
            CO_normed="98.041299" CO2_normed="11346.883673" HC_normed="0.708452" PMx_normed="0.165492" NOx_normed="4.317935" fuel_normed="4.877538" electricity_normed="0"
            traveltime="56.46" CO_perVeh="1142.786644" CO2_perVeh="132261.274147" HC_perVeh="8.257836" PMx_perVeh="1.929000" NOx_perVeh="50.330614" fuel_perVeh="56.853436" electricity_perVeh="0"/>
        <edge id="A1" sampledSeconds="220.92" CO_abs="18516.705195" CO2_abs="467985.841504" HC_abs="95.231914" PMx_abs="10.010621" NOx_abs="203.444455" fuel_abs="201.174018" electricity_abs="0"
            CO_normed="2258.364288" CO2_normed="57077.244619" HC_normed="11.614828" PMx_normed="1.220931" NOx_normed="24.812821" fuel_normed="24.535910" electricity_normed="0"
            traveltime="154.91" CO_perVeh="12983.853154" CO2_perVeh="328150.142279" HC_perVeh="66.776307" PMx_perVeh="7.019415" NOx_perVeh="142.654587" fuel_perVeh="141.062564" electricity_perVeh="0"/>