<?xml version="1.0" encoding="UTF-8"?>

<!-- generated on 25/05/2017 13:37:18 by SUMO gui Version 0.29.0
<?xml version="1.0" encoding="UTF-8"?>

<configuration xmlns:xsi="http://www.w3.org/2001/XMLSchema-instance" xsi:noNamespaceSchemaLocation="http://sumo.dlr.de/xsd/sumo-gui.exeConfiguration.xsd">

    <input>
        <net-file value="multiRoad.net.xml"/>
        <route-files value="multiRoadRandomDemand.rou.xml"/>
        <additional-files value="multiRoadAdditional.add.xml"/>
    </input>

    <output>
        <tripinfo-output value="tripinfo.xml"/>
    </output>

    <time>
        <begin value="0"/>
        <end value="7200"/>
    </time>

    <traci_server>
        <remote-port value="52913"/>
    </traci_server>

    <gui_only>
        <gui-settings-file value="multiRoad.settings.xml"/>
    </gui_only>

</configuration>
-->

<tripinfos xmlns:xsi="http://www.w3.org/2001/XMLSchema-instance" xsi:noNamespaceSchemaLocation="http://sumo.dlr.de/xsd/tripinfo_file.xsd">
    <tripinfo id="8" depart="16.00" departLane="A6_0" departPos="5.10" departSpeed="0.00" departDelay="0.00" arrival="126.00" arrivalLane="-A1_0" arrivalPos="491.95" arrivalSpeed="12.95" duration="110.00" routeLength="1381.96" waitSteps="0" timeLoss="9.54" rerouteNo="0" devices="tripinfo_8" vType="DEFAULT_VEHTYPE" speedFactor="1.00" vaporized=""/>
    <tripinfo id="28" depart="56.00" departLane="A7_0" departPos="5.10" departSpeed="0.00" departDelay="0.00" arrival="143.00" arrivalLane="-A8_0" arrivalPos="491.95" arrivalSpeed="13.27" duration="87.00" routeLength="994.90" waitSteps="2" timeLoss="14.54" rerouteNo="0" devices="tripinfo_28" vType="DEFAULT_VEHTYPE" speedFactor="1.00" vaporized=""/>
    <tripinfo id="16" depart="32.00" departLane="A5_0" departPos="5.10" departSpeed="0.00" departDelay="0.00" arrival="149.00" arrivalLane="-A1_0" arrivalPos="491.95" arrivalSpeed="13.58" duration="117.00" routeLength="1379.30" waitSteps="4" timeLoss="16.82" rerouteNo="0" devices="tripinfo_16" vType="DEFAULT_VEHTYPE" speedFactor="1.00" vaporized=""/>
    <tripinfo id="11" depart="22.00" departLane="A7_0" departPos="5.10" departSpeed="0.00" departDelay="0.00" arrival="159.00" arrivalLane="-A9_0" arrivalPos="745.25" arrivalSpeed="12.79" duration="137.00" routeLength="1237.10" waitSteps="34" timeLoss="47.41" rerouteNo="0" devices="tripinfo_11" vType="DEFAULT_VEHTYPE" speedFactor="1.00" vaporized=""/>
    <tripinfo id="2" depart="4.00" departLane="A5_0" departPos="5.10" departSpeed="0.00" departDelay="0.00" arrival="181.00" arrivalLane="-A7_0" arrivalPos="491.95" arrivalSpeed="12.77" duration="177.00" routeLength="2126.00" waitSteps="7" timeLoss="23.77" rerouteNo="0" devices="tripinfo_2" vType="DEFAULT_VEHTYPE" speedFactor="1.00" vaporized=""/>
    <tripinfo id="5" depart="10.00" departLane="A3_0" departPos="5.10" departSpeed="0.00" departDelay="0.00" arrival="185.00" arrivalLane="-A9_1" arrivalPos="745.25" arrivalSpeed="13.59" duration="175.00" routeLength="1995.19" waitSteps="15" timeLoss="30.49" rerouteNo="0" devices="tripinfo_5" vType="DEFAULT_VEHTYPE" speedFactor="1.00" vaporized=""/>
    <tripinfo id="3" depart="6.00" departLane="A3_0" departPos="5.10" departSpeed="0.00" departDelay="0.00" arrival="185.00" arrivalLane="-A9_0" arrivalPos="745.25" arrivalSpeed="13.14" duration="179.00" routeLength="1995.19" waitSteps="20" timeLoss="34.82" rerouteNo="0" devices="tripinfo_3" vType="DEFAULT_VEHTYPE" speedFactor="1.00" vaporized=""/>
    <tripinfo id="14" depart="28.00" departLane="A3_0" departPos="5.10" departSpeed="0.00" departDelay="0.00" arrival="189.00" arrivalLane="-A5_0" arrivalPos="391.95" arrivalSpeed="12.86" duration="161.00" routeLength="1387.39" waitSteps="43" timeLoss="60.79" rerouteNo="0" devices="tripinfo_14" vType="DEFAULT_VEHTYPE" speedFactor="1.00" vaporized=""/>
    <tripinfo id="12" depart="24.00" departLane="A3_0" departPos="5.10" departSpeed="0.00" departDelay="0.00" arrival="191.00" arrivalLane="-A9_0" arrivalPos="745.25" arrivalSpeed="12.94" duration="167.00" routeLength="1995.19" waitSteps="7" timeLoss="22.72" rerouteNo="0" devices="tripinfo_12" vType="DEFAULT_VEHTYPE" speedFactor="1.00" vaporized=""/>
    <tripinfo id="15" depart="31.00" departLane="A3_0" departPos="5.10" departSpeed="0.00" departDelay="1.00" arrival="191.00" arrivalLane="-A5_0" arrivalPos="391.95" arrivalSpeed="12.66" duration="160.00" routeLength="1387.39" waitSteps="35" timeLoss="59.87" rerouteNo="0" devices="tripinfo_15" vType="DEFAULT_VEHTYPE" speedFactor="1.00" vaporized=""/>
    <tripinfo id="18" depart="36.00" departLane="A6_0" departPos="5.10" departSpeed="0.00" departDelay="0.00" arrival="197.00" arrivalLane="-A3_0" arrivalPos="491.95" arrivalSpeed="12.85" duration="161.00" routeLength="1390.05" waitSteps="42" timeLoss="60.38" rerouteNo="0" devices="tripinfo_18" vType="DEFAULT_VEHTYPE" speedFactor="1.00" vaporized=""/>
    <tripinfo id="46" depart="92.00" departLane="A3_0" departPos="5.10" departSpeed="0.00" departDelay="0.00" arrival="208.00" arrivalLane="-A5_0" arrivalPos="391.95" arrivalSpeed="12.64" duration="116.00" routeLength="1387.39" waitSteps="1" timeLoss="15.60" rerouteNo="0" devices="tripinfo_46" vType="DEFAULT_VEHTYPE" speedFactor="1.00" vaporized=""/>
    <tripinfo id="58" depart="116.00" departLane="A3_0" departPos="5.10" departSpeed="0.00" departDelay="0.00" arrival="209.00" arrivalLane="-A1_0" arrivalPos="491.95" arrivalSpeed="13.03" duration="93.00" routeLength="994.90" waitSteps="9" timeLoss="20.47" rerouteNo="0" devices="tripinfo_58" vType="DEFAULT_VEHTYPE" speedFactor="1.00" vaporized=""/>
    <tripinfo id="48" depart="96.00" departLane="A9_0" departPos="5.10" departSpeed="0.00" departDelay="0.00" arrival="218.00" arrivalLane="-A8_0" arrivalPos="491.95" arrivalSpeed="12.60" duration="122.00" routeLength="1237.10" waitSteps="18" timeLoss="32.82" rerouteNo="0" devices="tripinfo_48" vType="DEFAULT_VEHTYPE" speedFactor="1.00" vaporized=""/>
    <tripinfo id="49" depart="99.00" departLane="A9_0" departPos="5.10" departSpeed="0.00" departDelay="1.00" arrival="220.00" arrivalLane="-A8_0" arrivalPos="491.95" arrivalSpeed="13.61" duration="121.00" routeLength="1237.10" waitSteps="16" timeLoss="31.71" rerouteNo="0" devices="tripinfo_49" vType="DEFAULT_VEHTYPE" speedFactor="1.00" vaporized=""/>
    <tripinfo id="57" depart="114.00" departLane="A9_0" departPos="5.10" departSpeed="0.00" departDelay="0.00" arrival="222.00" arrivalLane="-A8_0" arrivalPos="491.95" arrivalSpeed="13.38" duration="108.00" routeLength="1237.10" waitSteps="4" timeLoss="18.50" rerouteNo="0" devices="tripinfo_57" vType="DEFAULT_VEHTYPE" speedFactor="1.00" vaporized=""/>
    <tripinfo id="63" depart="126.00" departLane="A9_0" departPos="5.10" departSpeed="0.00" departDelay="0.00" arrival="224.00" arrivalLane="-A7_0" arrivalPos="491.95" arrivalSpeed="13.25" duration="98.00" routeLength="1245.19" waitSteps="0" timeLoss="7.85" rerouteNo="0" devices="tripinfo_63" vType="DEFAULT_VEHTYPE" speedFactor="1.00" vaporized=""/>
    <tripinfo id="10" depart="20.00" departLane="A9_0" departPos="5.10" departSpeed="0.00" departDelay="0.00" arrival="233.00" arrivalLane="-A1_0" arrivalPos="491.95" arrivalSpeed="12.90" duration="213.00" routeLength="1995.19" waitSteps="52" timeLoss="68.84" rerouteNo="0" devices="tripinfo_10" vType="DEFAULT_VEHTYPE" speedFactor="1.00" vaporized=""/>
    <tripinfo id="29" depart="59.00" departLane="A7_0" departPos="5.10" departSpeed="0.00" departDelay="1.00" arrival="235.00" arrivalLane="-A1_0" arrivalPos="491.95" arrivalSpeed="13.75" duration="176.00" routeLength="1744.73" waitSteps="27" timeLoss="49.63" rerouteNo="0" devices="tripinfo_29" vType="DEFAULT_VEHTYPE" speedFactor="1.00" vaporized=""/>
    <tripinfo id="86" depart="172.00" departLane="A5_0" departPos="5.10" departSpeed="0.00" departDelay="0.00" arrival="236.00" arrivalLane="-A6_0" arrivalPos="391.95" arrivalSpeed="13.06" duration="64.00" routeLength="794.90" waitSteps="0" timeLoss="5.91" rerouteNo="0" devices="tripinfo_86" vType="DEFAULT_VEHTYPE" speedFactor="1.00" vaporized=""/>
    <tripinfo id="69" depart="138.00" departLane="A3_0" departPos="5.10" departSpeed="0.00" departDelay="0.00" arrival="243.00" arrivalLane="-A1_0" arrivalPos="491.95" arrivalSpeed="13.66" duration="105.00" routeLength="994.90" waitSteps="22" timeLoss="33.31" rerouteNo="0" devices="tripinfo_69" vType="DEFAULT_VEHTYPE" speedFactor="1.00" vaporized=""/>
    <tripinfo id="50" depart="100.00" departLane="A1_0" departPos="5.10" departSpeed="0.00" departDelay="0.00" arrival="259.00" arrivalLane="-A2_1" arrivalPos="490.50" arrivalSpeed="4.65" duration="159.00" routeLength="990.44" waitSteps="71" timeLoss="87.56" rerouteNo="0" devices="tripinfo_50" vType="DEFAULT_VEHTYPE" speedFactor="1.00" vaporized=""/>
    <tripinfo id="42" depart="84.00" departLane="A5_0" departPos="5.10" departSpeed="0.00" departDelay="0.00" arrival="264.00" arrivalLane="-A3_0" arrivalPos="491.95" arrivalSpeed="12.70" duration="180.00" routeLength="1387.39" waitSteps="61" timeLoss="79.15" rerouteNo="0" devices="tripinfo_42" vType="DEFAULT_VEHTYPE" speedFactor="1.00" vaporized=""/>
    <tripinfo id="26" depart="52.00" departLane="A3_0" departPos="5.10" departSpeed="0.00" departDelay="0.00" arrival="265.00" arrivalLane="-A7_0" arrivalPos="491.95" arrivalSpeed="12.62" duration="213.00" routeLength="1734.09" waitSteps="67" timeLoss="87.99" rerouteNo="0" devices="tripinfo_26" vType="DEFAULT_VEHTYPE" speedFactor="1.00" vaporized=""/>
    <tripinfo id="45" depart="90.00" departLane="A6_0" departPos="5.10" departSpeed="0.00" departDelay="0.00" arrival="265.00" arrivalLane="-A1_0" arrivalPos="491.95" arrivalSpeed="13.61" duration="175.00" routeLength="1381.96" waitSteps="55" timeLoss="74.76" rerouteNo="0" devices="tripinfo_45" vType="DEFAULT_VEHTYPE" speedFactor="1.00" vaporized=""/>
    <tripinfo id="9" depart="18.00" departLane="A5_0" departPos="5.10" departSpeed="0.00" departDelay="0.00" arrival="265.00" arrivalLane="-A8_0" arrivalPos="491.95" arrivalSpeed="13.50" duration="247.00" routeLength="2136.64" waitSteps="67" timeLoss="92.86" rerouteNo="0" devices="tripinfo_9" vType="DEFAULT_VEHTYPE" speedFactor="1.00" vaporized=""/>
    <tripinfo id="83" depart="168.00" departLane="A7_0" departPos="5.10" departSpeed="0.00" departDelay="2.00" arrival="266.00" arrivalLane="-A9_0" arrivalPos="745.25" arrivalSpeed="13.04" duration="98.00" routeLength="1237.10" waitSteps="0" timeLoss="8.84" rerouteNo="0" devices="tripinfo_83" vType="DEFAULT_VEHTYPE" speedFactor="1.00" vaporized=""/>
    <tripinfo id="27" depart="54.00" departLane="A5_0" departPos="5.10" departSpeed="0.00" departDelay="0.00" arrival="267.00" arrivalLane="-A7_0" arrivalPos="491.95" arrivalSpeed="12.74" duration="213.00" routeLength="2126.00" waitSteps="43" timeLoss="59.60" rerouteNo="0" devices="tripinfo_27" vType="DEFAULT_VEHTYPE" speedFactor="1.00" vaporized=""/>
    <tripinfo id="13" depart="26.00" departLane="A5_0" departPos="5.10" departSpeed="0.00" departDelay="0.00" arrival="268.00" arrivalLane="-A8_0" arrivalPos="491.95" arrivalSpeed="12.71" duration="242.00" routeLength="2136.64" waitSteps="63" timeLoss="87.47" rerouteNo="0" devices="tripinfo_13" vType="DEFAULT_VEHTYPE" speedFactor="1.00" vaporized=""/>
    <tripinfo id="34" depart="68.00" departLane="A3_0" departPos="5.10" departSpeed="0.00" departDelay="0.00" arrival="269.00" arrivalLane="-A7_0" arrivalPos="491.95" arrivalSpeed="13.04" duration="201.00" routeLength="1734.09" waitSteps="55" timeLoss="75.74" rerouteNo="0" devices="tripinfo_34" vType="DEFAULT_VEHTYPE" speedFactor="1.00" vaporized=""/>
    <tripinfo id="36" depart="72.00" departLane="A3_0" departPos="5.10" departSpeed="0.00" departDelay="0.00" arrival="271.00" arrivalLane="-A7_0" arrivalPos="491.95" arrivalSpeed="13.56" duration="199.00" routeLength="1734.09" waitSteps="52" timeLoss="73.66" rerouteNo="0" devices="tripinfo_36" vType="DEFAULT_VEHTYPE" speedFactor="1.00" vaporized=""/>
    <tripinfo id="32" depart="64.00" departLane="A5_0" departPos="5.10" departSpeed="0.00" departDelay="0.00" arrival="271.00" arrivalLane="-A8_0" arrivalPos="491.95" arrivalSpeed="12.81" duration="207.00" routeLength="2136.64" waitSteps="25" timeLoss="53.04" rerouteNo="0" devices="tripinfo_32" vType="DEFAULT_VEHTYPE" speedFactor="1.00" vaporized=""/>
    <tripinfo id="25" depart="50.00" departLane="A6_0" departPos="5.10" departSpeed="0.00" departDelay="0.00" arrival="273.00" arrivalLane="-A7_0" arrivalPos="491.95" arrivalSpeed="13.21" duration="223.00" routeLength="2128.66" waitSteps="38" timeLoss="68.74" rerouteNo="0" devices="tripinfo_25" vType="DEFAULT_VEHTYPE" speedFactor="1.00" vaporized=""/>
    <tripinfo id="39" depart="78.00" departLane="A6_0" departPos="5.10" departSpeed="0.00" departDelay="0.00" arrival="273.00" arrivalLane="-A8_0" arrivalPos="491.95" arrivalSpeed="13.61" duration="195.00" routeLength="2139.30" waitSteps="13" timeLoss="40.42" rerouteNo="0" devices="tripinfo_39" vType="DEFAULT_VEHTYPE" speedFactor="1.00" vaporized=""/>
    <tripinfo id="35" depart="70.00" departLane="A6_0" departPos="5.10" departSpeed="0.00" departDelay="0.00" arrival="275.00" arrivalLane="-A7_1" arrivalPos="491.95" arrivalSpeed="13.18" duration="205.00" routeLength="2128.66" waitSteps="18" timeLoss="50.61" rerouteNo="0" devices="tripinfo_35" vType="DEFAULT_VEHTYPE" speedFactor="1.00" vaporized=""/>
    <tripinfo id="68" depart="136.00" departLane="A1_0" departPos="5.10" departSpeed="0.00" departDelay="0.00" arrival="277.00" arrivalLane="-A3_0" arrivalPos="491.95" arrivalSpeed="12.82" duration="141.00" routeLength="994.90" waitSteps="50" timeLoss="68.46" rerouteNo="0" devices="tripinfo_68" vType="DEFAULT_VEHTYPE" speedFactor="1.00" vaporized=""/>
    <tripinfo id="20" depart="40.00" departLane="A1_0" departPos="5.10" departSpeed="0.00" departDelay="0.00" arrival="278.00" arrivalLane="-A8_0" arrivalPos="491.95" arrivalSpeed="13.13" duration="238.00" routeLength="1736.64" waitSteps="98" timeLoss="112.03" rerouteNo="0" devices="tripinfo_20" vType="DEFAULT_VEHTYPE" speedFactor="1.00" vaporized=""/>
    <tripinfo id="53" depart="106.00" departLane="A3_0" departPos="5.10" departSpeed="0.00" departDelay="0.00" arrival="288.00" arrivalLane="-A9_0" arrivalPos="745.25" arrivalSpeed="13.58" duration="182.00" routeLength="1995.19" waitSteps="22" timeLoss="38.24" rerouteNo="0" devices="tripinfo_53" vType="DEFAULT_VEHTYPE" speedFactor="1.00" vaporized=""/>
    <tripinfo id="73" depart="146.00" departLane="A5_0" departPos="5.10" departSpeed="0.00" departDelay="0.00" arrival="288.00" arrivalLane="-A3_0" arrivalPos="491.95" arrivalSpeed="13.71" duration="142.00" routeLength="1387.39" waitSteps="20" timeLoss="41.07" rerouteNo="0" devices="tripinfo_73" vType="DEFAULT_VEHTYPE" speedFactor="1.00" vaporized=""/>
    <tripinfo id="65" depart="131.00" departLane="A3_0" departPos="5.10" departSpeed="0.00" departDelay="1.00" arrival="289.00" arrivalLane="-A6_0" arrivalPos="391.95" arrivalSpeed="12.62" duration="158.00" routeLength="1379.30" waitSteps="42" timeLoss="58.11" rerouteNo="0" devices="tripinfo_65" vType="DEFAULT_VEHTYPE" speedFactor="1.00" vaporized=""/>
    <tripinfo id="64" depart="128.00" departLane="A3_0" departPos="5.10" departSpeed="0.00" departDelay="0.00" arrival="289.00" arrivalLane="-A5_0" arrivalPos="391.95" arrivalSpeed="13.21" duration="161.00" routeLength="1387.39" waitSteps="44" timeLoss="60.75" rerouteNo="0" devices="tripinfo_64" vType="DEFAULT_VEHTYPE" speedFactor="1.00" vaporized=""/>
    <tripinfo id="71" depart="142.00" departLane="A6_0" departPos="5.10" departSpeed="0.00" departDelay="0.00" arrival="290.00" arrivalLane="-A3_0" arrivalPos="491.95" arrivalSpeed="13.48" duration="148.00" routeLength="1390.05" waitSteps="27" timeLoss="46.77" rerouteNo="0" devices="tripinfo_71" vType="DEFAULT_VEHTYPE" speedFactor="1.00" vaporized=""/>
    <tripinfo id="87" depart="174.00" departLane="A8_0" departPos="5.10" departSpeed="0.00" departDelay="0.00" arrival="291.00" arrivalLane="-A7_0" arrivalPos="491.95" arrivalSpeed="13.53" duration="117.00" routeLength="994.90" waitSteps="33" timeLoss="44.77" rerouteNo="0" devices="tripinfo_87" vType="DEFAULT_VEHTYPE" speedFactor="1.00" vaporized=""/>
    <tripinfo id="4" depart="8.00" departLane="A1_0" departPos="5.10" departSpeed="0.00" departDelay="0.00" arrival="291.00" arrivalLane="-A6_0" arrivalPos="391.95" arrivalSpeed="13.35" duration="283.00" routeLength="1387.39" waitSteps="162" timeLoss="182.25" rerouteNo="0" devices="tripinfo_4" vType="DEFAULT_VEHTYPE" speedFactor="1.00" vaporized=""/>
    <tripinfo id="0" depart="0.00" departLane="A8_0" departPos="5.10" departSpeed="0.00" departDelay="0.00" arrival="292.00" arrivalLane="-A6_0" arrivalPos="391.95" arrivalSpeed="13.84" duration="292.00" routeLength="2128.85" waitSteps="111" timeLoss="138.60" rerouteNo="0" devices="tripinfo_0" vType="DEFAULT_VEHTYPE" speedFactor="1.00" vaporized=""/>
    <tripinfo id="1" depart="3.00" departLane="A8_0" departPos="5.10" departSpeed="0.00" departDelay="1.00" arrival="293.00" arrivalLane="-A5_0" arrivalPos="391.95" arrivalSpeed="12.81" duration="290.00" routeLength="2136.94" waitSteps="105" timeLoss="135.30" rerouteNo="0" devices="tripinfo_1" vType="DEFAULT_VEHTYPE" speedFactor="1.00" vaporized=""/>
    <tripinfo id="17" depart="34.00" departLane="A9_0" departPos="5.10" departSpeed="0.00" departDelay="0.00" arrival="295.00" arrivalLane="-A6_0" arrivalPos="391.95" arrivalSpeed="13.11" duration="261.00" routeLength="2387.10" waitSteps="62" timeLoss="88.13" rerouteNo="0" devices="tripinfo_17" vType="DEFAULT_VEHTYPE" speedFactor="1.00" vaporized=""/>
    <tripinfo id="37" depart="74.00" departLane="A8_0" departPos="5.10" departSpeed="0.00" departDelay="0.00" arrival="295.00" arrivalLane="-A5_0" arrivalPos="391.95" arrivalSpeed="13.83" duration="221.00" routeLength="2136.94" waitSteps="41" timeLoss="66.31" rerouteNo="0" devices="tripinfo_37" vType="DEFAULT_VEHTYPE" speedFactor="1.00" vaporized=""/>
    <tripinfo id="38" depart="76.00" departLane="A7_0" departPos="5.10" departSpeed="0.00" departDelay="0.00" arrival="296.00" arrivalLane="-A6_0" arrivalPos="391.95" arrivalSpeed="13.23" duration="220.00" routeLength="2136.64" waitSteps="41" timeLoss="65.88" rerouteNo="0" devices="tripinfo_38" vType="DEFAULT_VEHTYPE" speedFactor="1.00" vaporized=""/>
    <tripinfo id="60" depart="120.00" departLane="A8_0" departPos="5.10" departSpeed="0.00" departDelay="0.00" arrival="297.00" arrivalLane="-A5_0" arrivalPos="391.95" arrivalSpeed="13.51" duration="177.00" routeLength="2136.94" waitSteps="4" timeLoss="22.52" rerouteNo="0" devices="tripinfo_60" vType="DEFAULT_VEHTYPE" speedFactor="1.00" vaporized=""/>
    <tripinfo id="54" depart="108.00" departLane="A1_0" departPos="5.10" departSpeed="0.00" departDelay="0.00" arrival="304.00" arrivalLane="-A5_0" arrivalPos="391.95" arrivalSpeed="13.26" duration="196.00" routeLength="1395.48" waitSteps="76" timeLoss="95.40" rerouteNo="0" devices="tripinfo_54" vType="DEFAULT_VEHTYPE" speedFactor="1.00" vaporized=""/>
    <tripinfo id="90" depart="180.00" departLane="A9_0" departPos="5.10" departSpeed="0.00" departDelay="0.00" arrival="315.00" arrivalLane="-A7_0" arrivalPos="491.95" arrivalSpeed="13.62" duration="135.00" routeLength="1245.19" waitSteps="33" timeLoss="45.21" rerouteNo="0" devices="tripinfo_90" vType="DEFAULT_VEHTYPE" speedFactor="1.00" vaporized=""/>
    <tripinfo id="85" depart="170.00" departLane="A9_0" departPos="5.10" departSpeed="0.00" departDelay="0.00" arrival="317.00" arrivalLane="-A8_0" arrivalPos="491.95" arrivalSpeed="13.60" duration="147.00" routeLength="1237.10" waitSteps="45" timeLoss="57.46" rerouteNo="0" devices="tripinfo_85" vType="DEFAULT_VEHTYPE" speedFactor="1.00" vaporized=""/>
    <tripinfo id="98" depart="196.00" departLane="A9_0" departPos="5.10" departSpeed="0.00" departDelay="0.00" arrival="321.00" arrivalLane="-A8_0" arrivalPos="491.95" arrivalSpeed="12.85" duration="125.00" routeLength="1237.10" waitSteps="22" timeLoss="35.30" rerouteNo="0" devices="tripinfo_98" vType="DEFAULT_VEHTYPE" speedFactor="1.00" vaporized=""/>
    <tripinfo id="103" depart="206.00" departLane="A9_0" departPos="5.10" departSpeed="0.00" departDelay="0.00" arrival="322.00" arrivalLane="-A7_0" arrivalPos="491.95" arrivalSpeed="13.57" duration="116.00" routeLength="1245.19" waitSteps="12" timeLoss="26.12" rerouteNo="0" devices="tripinfo_103" vType="DEFAULT_VEHTYPE" speedFactor="1.00" vaporized=""/>
    <tripinfo id="24" depart="48.00" departLane="A9_0" departPos="5.10" departSpeed="0.00" departDelay="0.00" arrival="327.00" arrivalLane="-A1_0" arrivalPos="491.95" arrivalSpeed="13.58" duration="279.00" routeLength="1995.19" waitSteps="114" timeLoss="134.54" rerouteNo="0" devices="tripinfo_24" vType="DEFAULT_VEHTYPE" speedFactor="1.00" vaporized=""/>
    <tripinfo id="79" depart="158.00" departLane="A7_0" departPos="5.10" departSpeed="0.00" departDelay="0.00" arrival="328.00" arrivalLane="-A2_0" arrivalPos="490.50" arrivalSpeed="12.75" duration="170.00" routeLength="1739.69" waitSteps="23" timeLoss="44.09" rerouteNo="0" devices="tripinfo_79" vType="DEFAULT_VEHTYPE" speedFactor="1.00" vaporized=""/>
    <tripinfo id="81" depart="162.00" departLane="A7_0" departPos="5.10" departSpeed="0.00" departDelay="0.00" arrival="329.00" arrivalLane="-A3_0" arrivalPos="491.95" arrivalSpeed="13.48" duration="167.00" routeLength="1736.64" waitSteps="22" timeLoss="41.37" rerouteNo="0" devices="tripinfo_81" vType="DEFAULT_VEHTYPE" speedFactor="1.00" vaporized=""/>
    <tripinfo id="76" depart="152.00" departLane="A7_0" departPos="5.10" departSpeed="0.00" departDelay="0.00" arrival="331.00" arrivalLane="-A1_0" arrivalPos="491.95" arrivalSpeed="12.76" duration="179.00" routeLength="1744.73" waitSteps="33" timeLoss="52.60" rerouteNo="0" devices="tripinfo_76" vType="DEFAULT_VEHTYPE" speedFactor="1.00" vaporized=""/>
    <tripinfo id="82" depart="165.00" departLane="A7_0" departPos="5.10" departSpeed="0.00" departDelay="1.00" arrival="332.00" arrivalLane="-A2_0" arrivalPos="490.50" arrivalSpeed="13.36" duration="167.00" routeLength="1739.69" waitSteps="23" timeLoss="41.07" rerouteNo="0" devices="tripinfo_82" vType="DEFAULT_VEHTYPE" speedFactor="1.00" vaporized=""/>
    <tripinfo id="84" depart="168.00" departLane="A6_0" departPos="5.10" departSpeed="0.00" departDelay="0.00" arrival="334.00" arrivalLane="-A4_0" arrivalPos="737.20" arrivalSpeed="10.11" duration="166.00" routeLength="1631.71" waitSteps="22" timeLoss="48.05" rerouteNo="0" devices="tripinfo_84" vType="DEFAULT_VEHTYPE" speedFactor="1.00" vaporized=""/>
    <tripinfo id="134" depart="268.00" departLane="A5_0" departPos="5.10" departSpeed="0.00" departDelay="0.00" arrival="335.00" arrivalLane="-A6_0" arrivalPos="391.95" arrivalSpeed="13.01" duration="67.00" routeLength="794.90" waitSteps="0" timeLoss="9.23" rerouteNo="0" devices="tripinfo_134" vType="DEFAULT_VEHTYPE" speedFactor="1.00" vaporized=""/>
    <tripinfo id="108" depart="216.00" departLane="A7_0" departPos="5.10" departSpeed="0.00" departDelay="0.00" arrival="343.00" arrivalLane="-A8_0" arrivalPos="491.95" arrivalSpeed="13.52" duration="127.00" routeLength="994.90" waitSteps="43" timeLoss="54.81" rerouteNo="0" devices="tripinfo_108" vType="DEFAULT_VEHTYPE" speedFactor="1.00" vaporized=""/>
    <tripinfo id="119" depart="238.00" departLane="A1_0" departPos="5.10" departSpeed="0.00" departDelay="0.00" arrival="352.00" arrivalLane="-A3_0" arrivalPos="491.95" arrivalSpeed="12.72" duration="114.00" routeLength="994.90" waitSteps="28" timeLoss="41.43" rerouteNo="0" devices="tripinfo_119" vType="DEFAULT_VEHTYPE" speedFactor="1.00" vaporized=""/>
    <tripinfo id="129" depart="258.00" departLane="A1_0" departPos="5.10" departSpeed="0.00" departDelay="0.00" arrival="353.00" arrivalLane="-A3_0" arrivalPos="491.95" arrivalSpeed="13.81" duration="95.00" routeLength="994.90" waitSteps="10" timeLoss="23.16" rerouteNo="0" devices="tripinfo_129" vType="DEFAULT_VEHTYPE" speedFactor="1.00" vaporized=""/>
    <tripinfo id="95" depart="190.00" departLane="A8_0" departPos="5.10" departSpeed="0.00" departDelay="0.00" arrival="358.00" arrivalLane="-A1_0" arrivalPos="491.95" arrivalSpeed="13.79" duration="168.00" routeLength="1736.94" waitSteps="23" timeLoss="42.39" rerouteNo="0" devices="tripinfo_95" vType="DEFAULT_VEHTYPE" speedFactor="1.00" vaporized=""/>
    <tripinfo id="67" depart="134.00" departLane="A3_0" departPos="5.10" departSpeed="0.00" departDelay="0.00" arrival="365.00" arrivalLane="-A7_0" arrivalPos="491.95" arrivalSpeed="13.67" duration="231.00" routeLength="1734.09" waitSteps="83" timeLoss="105.16" rerouteNo="0" devices="tripinfo_67" vType="DEFAULT_VEHTYPE" speedFactor="1.00" vaporized=""/>
    <tripinfo id="70" depart="141.00" departLane="A3_0" departPos="5.10" departSpeed="0.00" departDelay="1.00" arrival="366.00" arrivalLane="-A8_0" arrivalPos="491.95" arrivalSpeed="13.11" duration="225.00" routeLength="1744.73" waitSteps="77" timeLoss="98.48" rerouteNo="0" devices="tripinfo_70" vType="DEFAULT_VEHTYPE" speedFactor="1.00" vaporized=""/>
    <tripinfo id="77" depart="154.00" departLane="A1_0" departPos="5.10" departSpeed="0.00" departDelay="0.00" arrival="367.00" arrivalLane="-A8_0" arrivalPos="491.95" arrivalSpeed="13.67" duration="213.00" routeLength="1736.64" waitSteps="70" timeLoss="87.83" rerouteNo="0" devices="tripinfo_77" vType="DEFAULT_VEHTYPE" speedFactor="1.00" vaporized=""/>
    <tripinfo id="51" depart="102.00" departLane="A5_0" departPos="5.10" departSpeed="0.00" departDelay="0.00" arrival="368.00" arrivalLane="-A7_0" arrivalPos="491.95" arrivalSpeed="12.63" duration="266.00" routeLength="2126.00" waitSteps="88" timeLoss="112.83" rerouteNo="0" devices="tripinfo_51" vType="DEFAULT_VEHTYPE" speedFactor="1.00" vaporized=""/>
    <tripinfo id="56" depart="112.00" departLane="A6_0" departPos="5.10" departSpeed="0.00" departDelay="0.00" arrival="369.00" arrivalLane="-A8_0" arrivalPos="491.95" arrivalSpeed="13.37" duration="257.00" routeLength="2139.30" waitSteps="74" timeLoss="102.31" rerouteNo="0" devices="tripinfo_56" vType="DEFAULT_VEHTYPE" speedFactor="1.00" vaporized=""/>
    <tripinfo id="78" depart="156.00" departLane="A5_0" departPos="5.10" departSpeed="0.00" departDelay="0.00" arrival="371.00" arrivalLane="-A8_0" arrivalPos="491.95" arrivalSpeed="12.67" duration="215.00" routeLength="2136.64" waitSteps="33" timeLoss="60.76" rerouteNo="0" devices="tripinfo_78" vType="DEFAULT_VEHTYPE" speedFactor="1.00" vaporized=""/>
    <tripinfo id="102" depart="204.00" departLane="A5_0" departPos="5.10" departSpeed="0.00" departDelay="0.00" arrival="371.00" arrivalLane="-A1_0" arrivalPos="491.95" arrivalSpeed="12.78" duration="167.00" routeLength="1379.30" waitSteps="53" timeLoss="67.13" rerouteNo="0" devices="tripinfo_102" vType="DEFAULT_VEHTYPE" speedFactor="1.00" vaporized=""/>
    <tripinfo id="92" depart="184.00" departLane="A5_0" departPos="5.10" departSpeed="0.00" departDelay="0.00" arrival="373.00" arrivalLane="-A8_0" arrivalPos="491.95" arrivalSpeed="12.71" duration="189.00" routeLength="2136.64" waitSteps="16" timeLoss="34.98" rerouteNo="0" devices="tripinfo_92" vType="DEFAULT_VEHTYPE" speedFactor="1.00" vaporized=""/>
    <tripinfo id="109" depart="218.00" departLane="A1_0" departPos="5.10" departSpeed="0.00" departDelay="0.00" arrival="375.00" arrivalLane="-A8_0" arrivalPos="491.95" arrivalSpeed="12.82" duration="157.00" routeLength="1736.64" waitSteps="11" timeLoss="31.52" rerouteNo="0" devices="tripinfo_109" vType="DEFAULT_VEHTYPE" speedFactor="1.00" vaporized=""/>
    <tripinfo id="112" depart="224.00" departLane="A1_0" departPos="5.10" departSpeed="0.00" departDelay="0.00" arrival="377.00" arrivalLane="-A8_0" arrivalPos="491.95" arrivalSpeed="12.63" duration="153.00" routeLength="1736.64" waitSteps="5" timeLoss="27.33" rerouteNo="0" devices="tripinfo_112" vType="DEFAULT_VEHTYPE" speedFactor="1.00" vaporized=""/>
    <tripinfo id="80" depart="160.00" departLane="A3_0" departPos="5.10" departSpeed="0.00" departDelay="0.00" arrival="379.00" arrivalLane="-A8_0" arrivalPos="491.95" arrivalSpeed="13.54" duration="219.00" routeLength="1744.73" waitSteps="69" timeLoss="92.48" rerouteNo="0" devices="tripinfo_80" vType="DEFAULT_VEHTYPE" speedFactor="1.00" vaporized=""/>
    <tripinfo id="126" depart="252.00" departLane="A6_0" departPos="5.10" departSpeed="0.00" departDelay="0.00" arrival="384.00" arrivalLane="-A1_0" arrivalPos="491.95" arrivalSpeed="13.17" duration="132.00" routeLength="1381.96" waitSteps="11" timeLoss="31.12" rerouteNo="0" devices="tripinfo_126" vType="DEFAULT_VEHTYPE" speedFactor="1.00" vaporized=""/>
    <tripinfo id="40" depart="81.00" departLane="A6_0" departPos="5.10" departSpeed="0.00" departDelay="1.00" arrival="387.00" arrivalLane="-A9_0" arrivalPos="745.25" arrivalSpeed="13.21" duration="306.00" routeLength="2389.76" waitSteps="102" timeLoss="132.66" rerouteNo="0" devices="tripinfo_40" vType="DEFAULT_VEHTYPE" speedFactor="1.00" vaporized=""/>
    <tripinfo id="43" depart="86.00" departLane="A9_0" departPos="5.10" departSpeed="0.00" departDelay="0.00" arrival="389.00" arrivalLane="-A5_0" arrivalPos="391.95" arrivalSpeed="13.11" duration="303.00" routeLength="2395.19" waitSteps="103" timeLoss="129.81" rerouteNo="0" devices="tripinfo_43" vType="DEFAULT_VEHTYPE" speedFactor="1.00" vaporized=""/>
    <tripinfo id="59" depart="118.00" departLane="A5_0" departPos="5.10" departSpeed="0.00" departDelay="0.00" arrival="390.00" arrivalLane="-A9_0" arrivalPos="745.25" arrivalSpeed="13.56" duration="272.00" routeLength="2387.10" waitSteps="65" timeLoss="99.62" rerouteNo="0" devices="tripinfo_59" vType="DEFAULT_VEHTYPE" speedFactor="1.00" vaporized=""/>