<?xml version="1.0" encoding="UTF-8"?>

<!-- generated on 27/09/2018 16:44:01 by SUMO gui Version 0.32.0
<?xml version="1.0" encoding="UTF-8"?>

<configuration xmlns:xsi="http://www.w3.org/2001/XMLSchema-instance" xsi:noNamespaceSchemaLocation="http://sumo.dlr.de/xsd/sumoConfiguration.xsd">

    <input>
        <net-file value="C:\Users\acabrejasegea\OneDrive%20-%20The%20Alan%20Turing%20Institute\Desktop\ATI\0_TMF\MLforFlowOptimisation\Networks\Kings_X_positions\osm.net.xml"/>
        <route-files value="C:\Users\acabrejasegea\OneDrive%20-%20The%20Alan%20Turing%20Institute\Desktop\ATI\0_TMF\MLforFlowOptimisation\Networks\Kings_X_positions\osm.passenger.trips.xml"/>
        <additional-files value="C:\Users\acabrejasegea\OneDrive%20-%20The%20Alan%20Turing%20Institute\Desktop\ATI\0_TMF\MLforFlowOptimisation\Networks\Kings_X_positions\osm.poly.xml"/>
    </input>

    <output>
        <tripinfo-output value="BasicQ_KingsX_random_metrics_out\tripinfo.xml"/>
    </output>

    <processing>
        <ignore-route-errors value="true"/>
    </processing>

    <routing>
        <device.rerouting.adaptation-steps value="180"/>
    </routing>

    <report>
        <verbose value="true"/>
        <duration-log.statistics value="true"/>
        <no-step-log value="true"/>
    </report>

    <traci_server>
        <remote-port value="49234"/>
    </traci_server>

    <gui_only>
        <gui-settings-file value="C:\Users\acabrejasegea\OneDrive%20-%20The%20Alan%20Turing%20Institute\Desktop\ATI\0_TMF\MLforFlowOptimisation\Networks\Kings_X_positions\osm.view.xml"/>
    </gui_only>

</configuration>
-->

<tripinfos xmlns:xsi="http://www.w3.org/2001/XMLSchema-instance" xsi:noNamespaceSchemaLocation="http://sumo.dlr.de/xsd/tripinfo_file.xsd">
    <tripinfo id="veh7" depart="7.00" departLane="26294019#0_0" departPos="5.10" departSpeed="0.00" departDelay="-0.20" arrival="112.00" arrivalLane="232718096#0_0" arrivalPos="94.67" arrivalSpeed="7.08" duration="105.00" routeLength="687.18" waitSteps="2" timeLoss="17.77" rerouteNo="1" devices="tripinfo_veh7 routing_veh7" vType="passenger" speedFactor="0.89" vaporized=""/>
    <tripinfo id="veh54" depart="55.00" departLane="-4257255#0_0" departPos="5.10" departSpeed="0.00" departDelay="-0.57" arrival="130.00" arrivalLane="26785810#1_0" arrivalPos="45.43" arrivalSpeed="9.06" duration="75.00" routeLength="587.31" waitSteps="0" timeLoss="9.61" rerouteNo="1" devices="tripinfo_veh54 routing_veh54" vType="passenger" speedFactor="1.02" vaporized=""/>
    <tripinfo id="veh6" depart="6.00" departLane="-15693515#2_0" departPos="5.10" departSpeed="0.00" departDelay="-0.17" arrival="151.00" arrivalLane="-3127736#1_0" arrivalPos="37.38" arrivalSpeed="8.48" duration="145.00" routeLength="1362.32" waitSteps="0" timeLoss="17.32" rerouteNo="1" devices="tripinfo_veh6 routing_veh6" vType="passenger" speedFactor="1.05" vaporized=""/>
    <tripinfo id="veh25" depart="25.00" departLane="-38893516_0" departPos="5.10" departSpeed="0.00" departDelay="-0.73" arrival="158.00" arrivalLane="623074134#1_0" arrivalPos="84.20" arrivalSpeed="7.37" duration="133.00" routeLength="865.24" waitSteps="0" timeLoss="14.47" rerouteNo="1" devices="tripinfo_veh25 routing_veh25" vType="passenger" speedFactor="0.83" vaporized=""/>
    <tripinfo id="veh31" depart="31.00" departLane="-313583263#1_0" departPos="5.10" departSpeed="0.00" departDelay="-0.90" arrival="174.00" arrivalLane="-16296979#0_0" arrivalPos="28.92" arrivalSpeed="10.50" duration="143.00" routeLength="1316.51" waitSteps="0" timeLoss="19.99" rerouteNo="1" devices="tripinfo_veh31 routing_veh31" vType="passenger" speedFactor="1.18" vaporized=""/>
    <tripinfo id="veh66" depart="67.00" departLane="141351326#0_0" departPos="0.20" departSpeed="0.00" departDelay="-0.92" arrival="181.00" arrivalLane="234572145_0" arrivalPos="101.81" arrivalSpeed="11.89" duration="114.00" routeLength="1131.40" waitSteps="0" timeLoss="14.68" rerouteNo="1" devices="tripinfo_veh66 routing_veh66" vType="passenger" speedFactor="0.94" vaporized=""/>
    <tripinfo id="veh39" depart="40.00" departLane="-602799891#9_0" departPos="5.10" departSpeed="0.00" departDelay="-0.14" arrival="184.00" arrivalLane="-38060075_0" arrivalPos="2.80" arrivalSpeed="9.78" duration="144.00" routeLength="1092.26" waitSteps="21" timeLoss="40.29" rerouteNo="1" devices="tripinfo_veh39 routing_veh39" vType="passenger" speedFactor="1.18" vaporized=""/>
    <tripinfo id="veh90" depart="92.00" departLane="-77103500_0" departPos="5.10" departSpeed="0.00" departDelay="-0.62" arrival="189.00" arrivalLane="-4370468#2_0" arrivalPos="130.05" arrivalSpeed="8.08" duration="97.00" routeLength="750.99" waitSteps="0" timeLoss="12.31" rerouteNo="1" devices="tripinfo_veh90 routing_veh90" vType="passenger" speedFactor="1.00" vaporized=""/>
    <tripinfo id="veh22" depart="22.00" departLane="-235757577_0" departPos="5.10" departSpeed="0.00" departDelay="-0.64" arrival="189.00" arrivalLane="-4370466#3_0" arrivalPos="83.30" arrivalSpeed="8.71" duration="167.00" routeLength="1404.20" waitSteps="0" timeLoss="17.45" rerouteNo="1" devices="tripinfo_veh22 routing_veh22" vType="passenger" speedFactor="0.98" vaporized=""/>
    <tripinfo id="veh78" depart="80.00" departLane="-32592872_0" departPos="5.10" departSpeed="0.00" departDelay="-0.27" arrival="194.00" arrivalLane="29046088_1" arrivalPos="2.72" arrivalSpeed="6.51" duration="114.00" routeLength="548.17" waitSteps="28" timeLoss="49.61" rerouteNo="1" devices="tripinfo_veh78 routing_veh78" vType="passenger" speedFactor="0.96" vaporized=""/>
    <tripinfo id="veh60" depart="61.00" departLane="534024686#3_0" departPos="5.10" departSpeed="0.00" departDelay="-0.75" arrival="194.00" arrivalLane="4390227#3_0" arrivalPos="65.94" arrivalSpeed="8.84" duration="133.00" routeLength="933.92" waitSteps="18" timeLoss="42.69" rerouteNo="1" devices="tripinfo_veh60 routing_veh60" vType="passenger" speedFactor="1.02" vaporized=""/>
    <tripinfo id="veh34" depart="34.00" departLane="26709645#1_0" departPos="5.10" departSpeed="0.00" departDelay="-0.99" arrival="198.00" arrivalLane="-82123817_0" arrivalPos="12.37" arrivalSpeed="9.46" duration="164.00" routeLength="1570.42" waitSteps="0" timeLoss="26.19" rerouteNo="1" devices="tripinfo_veh34 routing_veh34" vType="passenger" speedFactor="1.17" vaporized=""/>
    <tripinfo id="veh21" depart="21.00" departLane="-207807963#3_0" departPos="5.10" departSpeed="0.00" departDelay="-0.61" arrival="207.00" arrivalLane="-404097028#0_0" arrivalPos="9.87" arrivalSpeed="8.01" duration="186.00" routeLength="1486.28" waitSteps="0" timeLoss="20.57" rerouteNo="1" devices="tripinfo_veh21 routing_veh21" vType="passenger" speedFactor="1.01" vaporized=""/>
    <tripinfo id="veh37" depart="38.00" departLane="225465142#0_0" departPos="2.76" departSpeed="0.00" departDelay="-0.08" arrival="216.00" arrivalLane="-4264243#3_0" arrivalPos="37.14" arrivalSpeed="8.56" duration="178.00" routeLength="1407.46" waitSteps="2" timeLoss="22.85" rerouteNo="1" devices="tripinfo_veh37 routing_veh37" vType="passenger" speedFactor="1.02" vaporized=""/>
    <tripinfo id="veh106" depart="109.00" departLane="-188128548#6_1" departPos="5.10" departSpeed="0.00" departDelay="-0.09" arrival="218.00" arrivalLane="246901382_0" arrivalPos="51.57" arrivalSpeed="7.89" duration="109.00" routeLength="455.75" waitSteps="44" timeLoss="55.69" rerouteNo="1" devices="tripinfo_veh106 routing_veh106" vType="passenger" speedFactor="0.96" vaporized=""/>
    <tripinfo id="veh80" depart="82.00" departLane="67712889#0_0" departPos="5.10" departSpeed="0.00" departDelay="-0.33" arrival="220.00" arrivalLane="2428140#2_0" arrivalPos="98.94" arrivalSpeed="13.36" duration="138.00" routeLength="910.67" waitSteps="29" timeLoss="56.85" rerouteNo="1" devices="tripinfo_veh80 routing_veh80" vType="passenger" speedFactor="1.03" vaporized=""/>
    <tripinfo id="veh2" depart="2.00" departLane="36775550#4_0" departPos="5.10" departSpeed="0.00" departDelay="-0.06" arrival="225.00" arrivalLane="30097638_0" arrivalPos="27.21" arrivalSpeed="8.47" duration="223.00" routeLength="1704.71" waitSteps="2" timeLoss="33.42" rerouteNo="1" devices="tripinfo_veh2 routing_veh2" vType="passenger" speedFactor="1.01" vaporized=""/>
    <tripinfo id="veh86" depart="88.00" departLane="8386794#2_0" departPos="5.10" departSpeed="0.00" departDelay="-0.50" arrival="235.00" arrivalLane="-238798322_0" arrivalPos="28.52" arrivalSpeed="8.60" duration="147.00" routeLength="1186.46" waitSteps="0" timeLoss="15.60" rerouteNo="1" devices="tripinfo_veh86 routing_veh86" vType="passenger" speedFactor="1.02" vaporized=""/>
    <tripinfo id="veh61" depart="62.00" departLane="-43309289#1_0" departPos="4.22" departSpeed="0.00" departDelay="-0.78" arrival="237.00" arrivalLane="-19092809#1_0" arrivalPos="58.92" arrivalSpeed="7.87" duration="175.00" routeLength="1230.63" waitSteps="9" timeLoss="37.52" rerouteNo="1" devices="tripinfo_veh61 routing_veh61" vType="passenger" speedFactor="0.97" vaporized=""/>
    <tripinfo id="veh33" depart="33.00" departLane="-30198798_0" departPos="3.59" departSpeed="0.00" departDelay="-0.96" arrival="241.00" arrivalLane="6578208_0" arrivalPos="206.23" arrivalSpeed="8.09" duration="208.00" routeLength="912.90" waitSteps="0" timeLoss="43.45" rerouteNo="1" devices="tripinfo_veh33 routing_veh33" vType="passenger" speedFactor="1.01" vaporized=""/>
    <tripinfo id="veh140" depart="144.00" departLane="-8096701#0_0" departPos="5.10" departSpeed="0.00" departDelay="-0.08" arrival="241.00" arrivalLane="-132318682#0_0" arrivalPos="18.76" arrivalSpeed="10.38" duration="97.00" routeLength="925.85" waitSteps="0" timeLoss="11.81" rerouteNo="1" devices="tripinfo_veh140 routing_veh140" vType="passenger" speedFactor="1.23" vaporized=""/>
    <tripinfo id="veh105" depart="108.00" departLane="19987400_0" departPos="0.39" departSpeed="0.00" departDelay="-0.06" arrival="250.00" arrivalLane="380467033_0" arrivalPos="0.20" arrivalSpeed="13.12" duration="142.00" routeLength="1458.00" waitSteps="0" timeLoss="14.41" rerouteNo="1" devices="tripinfo_veh105 routing_veh105" vType="passenger" speedFactor="1.07" vaporized=""/>
    <tripinfo id="veh40" depart="41.00" departLane="99961287#7_0" departPos="5.10" departSpeed="0.00" departDelay="-0.16" arrival="253.00" arrivalLane="201756812#11_0" arrivalPos="18.14" arrivalSpeed="9.02" duration="212.00" routeLength="1703.15" waitSteps="10" timeLoss="53.89" rerouteNo="1" devices="tripinfo_veh40 routing_veh40" vType="passenger" speedFactor="1.10" vaporized=""/>
    <tripinfo id="veh65" depart="66.00" departLane="404097027_0" departPos="5.10" departSpeed="0.00" departDelay="-0.89" arrival="254.00" arrivalLane="-250754903#3_0" arrivalPos="41.85" arrivalSpeed="8.30" duration="188.00" routeLength="1484.23" waitSteps="0" timeLoss="19.34" rerouteNo="1" devices="tripinfo_veh65 routing_veh65" vType="passenger" speedFactor="0.99" vaporized=""/>
    <tripinfo id="veh9" depart="9.00" departLane="4340906#3_0" departPos="5.10" departSpeed="0.00" departDelay="-0.26" arrival="255.00" arrivalLane="-120324572_0" arrivalPos="47.68" arrivalSpeed="6.43" duration="246.00" routeLength="1408.70" waitSteps="61" timeLoss="92.47" rerouteNo="1" devices="tripinfo_veh9 routing_veh9" vType="passenger" speedFactor="0.86" vaporized=""/>
    <tripinfo id="veh89" depart="91.00" departLane="-274469882#1_0" departPos="5.10" departSpeed="0.00" departDelay="-0.59" arrival="259.00" arrivalLane="154540885_0" arrivalPos="72.11" arrivalSpeed="7.81" duration="168.00" routeLength="1288.67" waitSteps="0" timeLoss="22.79" rerouteNo="1" devices="tripinfo_veh89 routing_veh89" vType="passenger" speedFactor="0.98" vaporized=""/>
    <tripinfo id="veh134" depart="137.00" departLane="15690838#0_0" departPos="5.10" departSpeed="0.00" departDelay="-0.90" arrival="260.00" arrivalLane="55337113#1_0" arrivalPos="92.68" arrivalSpeed="8.72" duration="123.00" routeLength="1015.76" waitSteps="0" timeLoss="20.82" rerouteNo="1" devices="tripinfo_veh134 routing_veh134" vType="passenger" speedFactor="1.12" vaporized=""/>
    <tripinfo id="veh41" depart="42.00" departLane="-2415184#2_0" departPos="5.10" departSpeed="0.00" departDelay="-0.19" arrival="267.00" arrivalLane="26374216#0_0" arrivalPos="56.42" arrivalSpeed="8.03" duration="225.00" routeLength="1606.99" waitSteps="0" timeLoss="25.21" rerouteNo="1" devices="tripinfo_veh41 routing_veh41" vType="passenger" speedFactor="0.90" vaporized=""/>
    <tripinfo id="veh44" depart="45.00" departLane="9894931#2_0" departPos="5.10" departSpeed="0.00" departDelay="-0.28" arrival="278.00" arrivalLane="224188581#1_1" arrivalPos="3.67" arrivalSpeed="13.43" duration="233.00" routeLength="1781.72" waitSteps="16" timeLoss="52.84" rerouteNo="1" devices="tripinfo_veh44 routing_veh44" vType="passenger" speedFactor="1.09" vaporized=""/>
    <tripinfo id="veh1" depart="1.00" departLane="-404014015#7_0" departPos="5.10" departSpeed="0.00" departDelay="-0.03" arrival="283.00" arrivalLane="-38809707#1_0" arrivalPos="6.12" arrivalSpeed="8.18" duration="282.00" routeLength="1824.59" waitSteps="43" timeLoss="77.47" rerouteNo="1" devices="tripinfo_veh1 routing_veh1" vType="passenger" speedFactor="0.94" vaporized=""/>
    <tripinfo id="veh64" depart="65.00" departLane="-19823660#0_0" departPos="5.10" departSpeed="0.00" departDelay="-0.86" arrival="284.00" arrivalLane="38893516_0" arrivalPos="51.23" arrivalSpeed="8.80" duration="219.00" routeLength="1657.14" waitSteps="7" timeLoss="35.66" rerouteNo="1" devices="tripinfo_veh64 routing_veh64" vType="passenger" speedFactor="1.02" vaporized=""/>
    <tripinfo id="veh51" depart="52.00" departLane="53372461#0_0" departPos="5.10" departSpeed="0.00" departDelay="-0.48" arrival="287.00" arrivalLane="-4264944#1_0" arrivalPos="60.92" arrivalSpeed="6.45" duration="235.00" routeLength="1582.79" waitSteps="8" timeLoss="36.73" rerouteNo="1" devices="tripinfo_veh51 routing_veh51" vType="passenger" speedFactor="0.85" vaporized=""/>
    <tripinfo id="veh45" depart="46.00" departLane="8253981#0_0" departPos="5.10" departSpeed="0.00" departDelay="-0.31" arrival="289.00" arrivalLane="4884668#2_0" arrivalPos="57.08" arrivalSpeed="9.13" duration="243.00" routeLength="1963.64" waitSteps="0" timeLoss="30.74" rerouteNo="1" devices="tripinfo_veh45 routing_veh45" vType="passenger" speedFactor="1.04" vaporized=""/>
    <tripinfo id="veh57" depart="58.00" departLane="4253993#1_0" departPos="5.10" departSpeed="0.00" departDelay="-0.66" arrival="293.00" arrivalLane="22597403#2_0" arrivalPos="14.57" arrivalSpeed="12.14" duration="235.00" routeLength="1845.29" waitSteps="10" timeLoss="42.64" rerouteNo="1" devices="tripinfo_veh57 routing_veh57" vType="passenger" speedFactor="1.00" vaporized=""/>
    <tripinfo id="veh168" depart="172.00" departLane="82124997#5_0" departPos="5.10" departSpeed="0.00" departDelay="-0.89" arrival="294.00" arrivalLane="-27577234#2_0" arrivalPos="5.07" arrivalSpeed="8.34" duration="122.00" routeLength="794.11" waitSteps="13" timeLoss="35.17" rerouteNo="1" devices="tripinfo_veh168 routing_veh168" vType="passenger" speedFactor="0.99" vaporized=""/>
    <tripinfo id="veh46" depart="47.00" departLane="-129375498#4_0" departPos="5.10" departSpeed="0.00" departDelay="-0.34" arrival="296.00" arrivalLane="332219168#0_0" arrivalPos="948.12" arrivalSpeed="13.41" duration="249.00" routeLength="2807.33" waitSteps="0" timeLoss="23.97" rerouteNo="1" devices="tripinfo_veh46 routing_veh46" vType="passenger" speedFactor="1.04" vaporized=""/>
    <tripinfo id="veh43" depart="44.00" departLane="-19209655#0_0" departPos="5.10" departSpeed="0.00" departDelay="-0.25" arrival="296.00" arrivalLane="-7742060#0_0" arrivalPos="0.20" arrivalSpeed="5.29" duration="252.00" routeLength="1915.22" waitSteps="0" timeLoss="28.09" rerouteNo="1" devices="tripinfo_veh43 routing_veh43" vType="passenger" speedFactor="0.96" vaporized=""/>
    <tripinfo id="veh38" depart="39.00" departLane="236678750#2_1" departPos="5.10" departSpeed="0.00" departDelay="-0.11" arrival="303.00" arrivalLane="538314349#2_1" arrivalPos="2.75" arrivalSpeed="7.52" duration="264.00" routeLength="2063.76" waitSteps="8" timeLoss="46.53" rerouteNo="1" devices="tripinfo_veh38 routing_veh38" vType="passenger" speedFactor="0.97" vaporized=""/>
    <tripinfo id="veh4" depart="4.00" departLane="-77103500_0" departPos="5.10" departSpeed="0.00" departDelay="-0.12" arrival="304.00" arrivalLane="-16295338#12_0" arrivalPos="39.18" arrivalSpeed="8.93" duration="300.00" routeLength="2362.94" waitSteps="5" timeLoss="46.35" rerouteNo="1" devices="tripinfo_veh4 routing_veh4" vType="passenger" speedFactor="1.03" vaporized=""/>
    <tripinfo id="veh11" depart="11.00" departLane="-4711429#1_0" departPos="5.10" departSpeed="0.00" departDelay="-0.32" arrival="307.00" arrivalLane="-26785612#0_0" arrivalPos="191.37" arrivalSpeed="8.67" duration="296.00" routeLength="2115.07" waitSteps="27" timeLoss="65.02" rerouteNo="1" devices="tripinfo_veh11 routing_veh11" vType="passenger" speedFactor="1.03" vaporized=""/>
    <tripinfo id="veh98" depart="100.00" departLane="-609061152#1_0" departPos="5.10" departSpeed="0.00" departDelay="-0.85" arrival="307.00" arrivalLane="-19207808#2_0" arrivalPos="18.12" arrivalSpeed="9.62" duration="207.00" routeLength="1051.30" waitSteps="69" timeLoss="99.78" rerouteNo="1" devices="tripinfo_veh98 routing_veh98" vType="passenger" speedFactor="1.09" vaporized=""/>
    <tripinfo id="veh59" depart="60.00" departLane="-151469109#1_0" departPos="5.10" departSpeed="0.00" departDelay="-0.72" arrival="308.00" arrivalLane="602799891#1_0" arrivalPos="30.51" arrivalSpeed="9.10" duration="248.00" routeLength="2001.85" waitSteps="9" timeLoss="51.50" rerouteNo="1" devices="tripinfo_veh59 routing_veh59" vType="passenger" speedFactor="1.14" vaporized=""/>
    <tripinfo id="veh27" depart="27.00" departLane="-26785810#0_0" departPos="5.10" departSpeed="0.00" departDelay="-0.79" arrival="309.00" arrivalLane="355162536#0_0" arrivalPos="44.29" arrivalSpeed="7.98" duration="282.00" routeLength="1790.04" waitSteps="47" timeLoss="82.74" rerouteNo="1" devices="tripinfo_veh27 routing_veh27" vType="passenger" speedFactor="0.92" vaporized=""/>
    <tripinfo id="veh83" depart="85.00" departLane="-23180860#13_0" departPos="5.10" departSpeed="0.00" departDelay="-0.42" arrival="311.00" arrivalLane="119695444#5_0" arrivalPos="40.59" arrivalSpeed="9.44" duration="226.00" routeLength="1811.34" waitSteps="1" timeLoss="39.55" rerouteNo="1" devices="tripinfo_veh83 routing_veh83" vType="passenger" speedFactor="1.09" vaporized=""/>
    <tripinfo id="veh149" depart="153.00" departLane="-628446081_0" departPos="4.75" departSpeed="0.00" departDelay="-0.34" arrival="312.00" arrivalLane="26291687#4_0" arrivalPos="72.18" arrivalSpeed="9.50" duration="159.00" routeLength="1476.38" waitSteps="0" timeLoss="20.70" rerouteNo="1" devices="tripinfo_veh149 routing_veh149" vType="passenger" speedFactor="1.13" vaporized=""/>
    <tripinfo id="veh183" depart="188.00" departLane="-61841419_1" departPos="4.61" departSpeed="0.00" departDelay="-0.33" arrival="320.00" arrivalLane="-4711430#2_0" arrivalPos="46.16" arrivalSpeed="7.52" duration="132.00" routeLength="844.40" waitSteps="12" timeLoss="28.78" rerouteNo="1" devices="tripinfo_veh183 routing_veh183" vType="passenger" speedFactor="0.92" vaporized=""/>
    <tripinfo id="veh35" depart="36.00" departLane="602799890#5_0" departPos="5.10" departSpeed="0.00" departDelay="-0.02" arrival="326.00" arrivalLane="16292271#2_0" arrivalPos="88.71" arrivalSpeed="7.84" duration="290.00" routeLength="2331.24" waitSteps="0" timeLoss="34.37" rerouteNo="1" devices="tripinfo_veh35 routing_veh35" vType="passenger" speedFactor="0.99" vaporized=""/>
    <tripinfo id="veh188" depart="193.00" departLane="-102273802#2_0" departPos="0.20" departSpeed="0.00" departDelay="-0.47" arrival="329.00" arrivalLane="-4607834#1_0" arrivalPos="15.98" arrivalSpeed="9.28" duration="136.00" routeLength="1111.65" waitSteps="12" timeLoss="41.47" rerouteNo="1" devices="tripinfo_veh188 routing_veh188" vType="passenger" speedFactor="1.10" vaporized=""/>
    <tripinfo id="veh114" depart="118.00" departLane="-76590370#1_0" departPos="5.10" departSpeed="0.00" departDelay="0.68" arrival="331.00" arrivalLane="246803972#0_0" arrivalPos="10.37" arrivalSpeed="7.40" duration="213.00" routeLength="1644.50" waitSteps="0" timeLoss="23.75" rerouteNo="1" devices="tripinfo_veh114 routing_veh114" vType="passenger" speedFactor="0.96" vaporized=""/>
    <tripinfo id="veh76" depart="78.00" departLane="-313583263#1_0" departPos="5.10" departSpeed="0.00" departDelay="-0.21" arrival="334.00" arrivalLane="55337113#1_0" arrivalPos="92.68" arrivalSpeed="8.20" duration="256.00" routeLength="1992.86" waitSteps="0" timeLoss="24.76" rerouteNo="1" devices="tripinfo_veh76 routing_veh76" vType="passenger" speedFactor="0.94" vaporized=""/>
    <tripinfo id="veh73" depart="75.00" departLane="-47048136#2_0" departPos="5.10" departSpeed="0.00" departDelay="-0.13" arrival="336.00" arrivalLane="2483870#0_0" arrivalPos="82.23" arrivalSpeed="8.15" duration="261.00" routeLength="1914.67" waitSteps="7" timeLoss="51.27" rerouteNo="1" devices="tripinfo_veh73 routing_veh73" vType="passenger" speedFactor="1.02" vaporized=""/>
    <tripinfo id="veh17" depart="17.00" departLane="4536595#1_0" departPos="5.10" departSpeed="0.00" departDelay="-0.49" arrival="339.00" arrivalLane="26072428#0_1" arrivalPos="12.21" arrivalSpeed="7.62" duration="322.00" routeLength="2311.25" waitSteps="7" timeLoss="47.08" rerouteNo="1" devices="tripinfo_veh17 routing_veh17" vType="passenger" speedFactor="0.94" vaporized=""/>
    <tripinfo id="veh0" depart="0.00" departLane="25594977#0_0" departPos="5.10" departSpeed="0.00" departDelay="0.00" arrival="343.00" arrivalLane="-15693581#0_0" arrivalPos="15.29" arrivalSpeed="8.44" duration="343.00" routeLength="2128.10" waitSteps="66" timeLoss="118.06" rerouteNo="1" devices="tripinfo_veh0 routing_veh0" vType="passenger" speedFactor="1.06" vaporized=""/>
    <tripinfo id="veh165" depart="169.00" departLane="25859274#4_0" departPos="5.10" departSpeed="0.00" departDelay="-0.80" arrival="343.00" arrivalLane="-8258987#1_0" arrivalPos="0.66" arrivalSpeed="7.81" duration="174.00" routeLength="1496.11" waitSteps="4" timeLoss="30.18" rerouteNo="1" devices="tripinfo_veh165 routing_veh165" vType="passenger" speedFactor="1.14" vaporized=""/>
    <tripinfo id="veh157" depart="161.00" departLane="4255941_0" departPos="5.10" departSpeed="0.00" departDelay="-0.57" arrival="344.00" arrivalLane="-2430840#2_0" arrivalPos="21.79" arrivalSpeed="8.63" duration="183.00" routeLength="1520.21" waitSteps="3" timeLoss="33.83" rerouteNo="1" devices="tripinfo_veh157 routing_veh157" vType="passenger" speedFactor="1.00" vaporized=""/>
    <tripinfo id="veh14" depart="14.00" departLane="48379506#1_0" departPos="5.10" departSpeed="0.00" departDelay="-0.41" arrival="349.00" arrivalLane="253352352#0_0" arrivalPos="15.01" arrivalSpeed="8.85" duration="335.00" routeLength="2243.76" waitSteps="45" timeLoss="84.70" rerouteNo="1" devices="tripinfo_veh14 routing_veh14" vType="passenger" speedFactor="0.99" vaporized=""/>
    <tripinfo id="veh135" depart="138.00" departLane="48379487#1_0" departPos="4.52" departSpeed="0.00" departDelay="-0.93" arrival="352.00" arrivalLane="-23293117_0" arrivalPos="67.45" arrivalSpeed="8.20" duration="214.00" routeLength="1562.03" waitSteps="5" timeLoss="39.59" rerouteNo="1" devices="tripinfo_veh135 routing_veh135" vType="passenger" speedFactor="1.01" vaporized=""/>
    <tripinfo id="veh29" depart="29.00" departLane="217313923#1_0" departPos="5.10" departSpeed="0.00" departDelay="-0.84" arrival="352.00" arrivalLane="30199824#1_0" arrivalPos="45.71" arrivalSpeed="10.11" duration="323.00" routeLength="2776.52" waitSteps="9" timeLoss="60.59" rerouteNo="1" devices="tripinfo_veh29 routing_veh29" vType="passenger" speedFactor="1.13" vaporized=""/>
    <tripinfo id="veh285" depart="293.00" departLane="4884668#3_0" departPos="0.20" departSpeed="0.00" departDelay="-0.30" arrival="365.00" arrivalLane="-27929812#2_0" arrivalPos="21.53" arrivalSpeed="7.46" duration="72.00" routeLength="552.96" waitSteps="0" timeLoss="7.87" rerouteNo="1" devices="tripinfo_veh285 routing_veh285" vType="passenger" speedFactor="0.97" vaporized=""/>
    <tripinfo id="veh224" depart="230.00" departLane="30727695#1_0" departPos="5.10" departSpeed="0.00" departDelay="-0.52" arrival="365.00" arrivalLane="-19823660#0_0" arrivalPos="25.80" arrivalSpeed="9.40" duration="135.00" routeLength="1135.46" waitSteps="0" timeLoss="18.11" rerouteNo="1" devices="tripinfo_veh224 routing_veh224" vType="passenger" speedFactor="1.09" vaporized=""/>
    <tripinfo id="veh124" depart="127.00" departLane="534027366#0_0" departPos="5.10" departSpeed="0.00" departDelay="-0.61" arrival="373.00" arrivalLane="5067436_0" arrivalPos="226.29" arrivalSpeed="8.38" duration="246.00" routeLength="2229.83" waitSteps="12" timeLoss="47.92" rerouteNo="1" devices="tripinfo_veh124 routing_veh124" vType="passenger" speedFactor="0.99" vaporized=""/>
    <tripinfo id="veh119" depart="122.00" departLane="-4352297#1_0" departPos="5.10" departSpeed="0.00" departDelay="-0.46" arrival="378.00" arrivalLane="38444000_0" arrivalPos="78.80" arrivalSpeed="9.66" duration="256.00" routeLength="2402.81" waitSteps="18" timeLoss="54.48" rerouteNo="1" devices="tripinfo_veh119 routing_veh119" vType="passenger" speedFactor="1.10" vaporized=""/>
    <tripinfo id="veh130" depart="133.00" departLane="-2498964#3_0" departPos="5.10" departSpeed="0.00" departDelay="-0.78" arrival="382.00" arrivalLane="-245290331#3_0" arrivalPos="39.36" arrivalSpeed="8.39" duration="249.00" routeLength="1046.79" waitSteps="116" timeLoss="138.07" rerouteNo="1" devices="tripinfo_veh130 routing_veh130" vType="passenger" speedFactor="1.06" vaporized=""/>
    <tripinfo id="veh92" depart="94.00" departLane="-8386772#2_0" departPos="5.10" departSpeed="0.00" departDelay="-0.68" arrival="384.00" arrivalLane="4884668#5_0" arrivalPos="33.06" arrivalSpeed="8.04" duration="290.00" routeLength="2027.13" waitSteps="28" timeLoss="67.32" rerouteNo="1" devices="tripinfo_veh92 routing_veh92" vType="passenger" speedFactor="1.01" vaporized=""/>
    <tripinfo id="veh79" depart="81.00" departLane="-30241013#3_0" departPos="5.10" departSpeed="0.00" departDelay="-0.30" arrival="384.00" arrivalLane="-253356188#2_0" arrivalPos="44.23" arrivalSpeed="12.20" duration="303.00" routeLength="2353.17" waitSteps="15" timeLoss="51.84" rerouteNo="1" devices="tripinfo_veh79 routing_veh79" vType="passenger" speedFactor="0.98" vaporized=""/>
    <tripinfo id="veh52" depart="53.00" departLane="166364278#0_1" departPos="5.10" departSpeed="0.00" departDelay="-0.51" arrival="384.00" arrivalLane="-27577234#2_0" arrivalPos="5.07" arrivalSpeed="7.23" duration="331.00" routeLength="2212.83" waitSteps="26" timeLoss="64.22" rerouteNo="1" devices="tripinfo_veh52 routing_veh52" vType="passenger" speedFactor="0.85" vaporized=""/>
    <tripinfo id="veh81" depart="83.00" departLane="13851546#0_1" departPos="5.10" departSpeed="0.00" departDelay="-0.36" arrival="392.00" arrivalLane="4253998_0" arrivalPos="10.89" arrivalSpeed="9.56" duration="309.00" routeLength="2277.37" waitSteps="25" timeLoss="61.23" rerouteNo="1" devices="tripinfo_veh81 routing_veh81" vType="passenger" speedFactor="0.98" vaporized=""/>
    <tripinfo id="veh260" depart="267.00" departLane="4367366#2_0" departPos="5.10" departSpeed="0.00" departDelay="-0.57" arrival="392.00" arrivalLane="8096707#4_0" arrivalPos="4.28" arrivalSpeed="7.55" duration="125.00" routeLength="872.05" waitSteps="0" timeLoss="13.68" rerouteNo="1" devices="tripinfo_veh260 routing_veh260" vType="passenger" speedFactor="0.88" vaporized=""/>
    <tripinfo id="veh216" depart="222.00" departLane="561132269#0_0" departPos="0.28" departSpeed="0.00" departDelay="-0.29" arrival="394.00" arrivalLane="374047987#5_1" arrivalPos="19.23" arrivalSpeed="7.81" duration="172.00" routeLength="1407.30" waitSteps="2" timeLoss="25.28" rerouteNo="1" devices="tripinfo_veh216 routing_veh216" vType="passenger" speedFactor="0.96" vaporized=""/>
    <tripinfo id="veh239" depart="245.00" departLane="120340387_0" departPos="5.10" departSpeed="0.00" departDelay="-0.96" arrival="394.00" arrivalLane="-250334905#2_0" arrivalPos="18.73" arrivalSpeed="8.31" duration="149.00" routeLength="1464.16" waitSteps="3" timeLoss="32.09" rerouteNo="1" devices="tripinfo_veh239 routing_veh239" vType="passenger" speedFactor="1.04" vaporized=""/>
    <tripinfo id="veh56" depart="57.00" departLane="404014013_0" departPos="5.10" departSpeed="0.00" departDelay="-0.63" arrival="397.00" arrivalLane="23163545#3_0" arrivalPos="40.59" arrivalSpeed="8.05" duration="340.00" routeLength="2380.22" waitSteps="32" timeLoss="74.33" rerouteNo="1" devices="tripinfo_veh56 routing_veh56" vType="passenger" speedFactor="1.00" vaporized=""/>
    <tripinfo id="veh142" depart="146.00" departLane="59117432_0" departPos="5.10" departSpeed="0.00" departDelay="-0.13" arrival="403.00" arrivalLane="23279424#2_0" arrivalPos="103.50" arrivalSpeed="9.56" duration="257.00" routeLength="2245.26" waitSteps="0" timeLoss="35.10" rerouteNo="1" devices="tripinfo_veh142 routing_veh142" vType="passenger" speedFactor="1.12" vaporized=""/>
    <tripinfo id="veh113" depart="116.00" departLane="2415185#1_0" departPos="5.10" departSpeed="0.00" departDelay="-0.29" arrival="404.00" arrivalLane="262591658#0_0" arrivalPos="56.10" arrivalSpeed="8.30" duration="288.00" routeLength="2396.13" waitSteps="15" timeLoss="65.00" rerouteNo="1" devices="tripinfo_veh113 routing_veh113" vType="passenger" speedFactor="1.06" vaporized=""/>