<?xml version="1.0" encoding="UTF-8"?>

<!-- generated on Wed  4 Jul 10:34:24 2018 by SUMO gui Version 0.32.0
<?xml version="1.0" encoding="UTF-8"?>

<configuration xmlns:xsi="http://www.w3.org/2001/XMLSchema-instance" xsi:noNamespaceSchemaLocation="http://sumo.dlr.de/xsd/sumoConfiguration.xsd">

    <input>
        <net-file value="QLearn/cityNetwork.net.xml"/>
        <route-files value="QLearn/cityNetwork.rou.xml"/>
        <additional-files value="QLearn/cityNetworkAdditional.add.xml"/>
    </input>

    <output>
        <tripinfo-output value="tripinfo.xml"/>
    </output>

    <time>
        <begin value="0"/>
        <end value="3600"/>
    </time>

    <traci_server>
        <remote-port value="56827"/>
    </traci_server>

    <gui_only>
        <gui-settings-file value="QLearn/cityNetwork.settings.xml"/>
    </gui_only>

</configuration>
-->

<meandata xmlns:xsi="http://www.w3.org/2001/XMLSchema-instance" xsi:noNamespaceSchemaLocation="http://sumo.dlr.de/xsd/meandata_file.xsd">
    <interval begin="0.00" end="60.00" id="emissionEdgeData1">
        <edge id="--165928#2" sampledSeconds="12.98" CO_abs="1332.980352" CO2_abs="70072.485247" HC_abs="7.748738" PMx_abs="1.450933" NOx_abs="30.165144" fuel_abs="30.121043" electricity_abs="0"
            CO_normed="655.994268" CO2_normed="34484.490771" HC_normed="3.813356" PMx_normed="0.714042" NOx_normed="14.845051" fuel_normed="14.823348" electricity_normed="0"
            traveltime="12.99" CO_perVeh="1334.074573" CO2_perVeh="70130.006577" HC_perVeh="7.755099" PMx_perVeh="1.452124" NOx_perVeh="30.189906" fuel_perVeh="30.145769" electricity_perVeh="0"/>
        <edge id="-12689656#3" sampledSeconds="5.85" CO_abs="57.696000" CO2_abs="6491.242770" HC_abs="0.421455" PMx_abs="0.121617" NOx_abs="2.469828" fuel_abs="2.790285" electricity_abs="0"
            CO_normed="7.685115" CO2_normed="864.634402" HC_normed="0.056138" PMx_normed="0.016199" NOx_normed="0.328981" fuel_normed="0.371666" electricity_normed="0"
            traveltime="21.05" CO_perVeh="207.435219" CO2_perVeh="23338.054067" HC_perVeh="1.515263" PMx_perVeh="0.437250" NOx_perVeh="8.879806" fuel_perVeh="10.031949" electricity_perVeh="0"/>
        <edge id="-13855736#9" sampledSeconds="44.00" CO_abs="2073.498018" CO2_abs="152335.008200" HC_abs="13.130620" PMx_abs="3.007386" NOx_abs="61.851664" fuel_abs="65.481848" electricity_abs="0"
            CO_normed="198.696566" CO2_normed="14597.768023" HC_normed="1.258265" PMx_normed="0.288188" NOx_normed="5.927044" fuel_normed="6.274912" electricity_normed="0"
            traveltime="44.43" CO_perVeh="2093.901275" CO2_perVeh="153833.987370" HC_perVeh="13.259826" PMx_perVeh="3.036979" NOx_perVeh="62.460286" fuel_perVeh="66.126191" electricity_perVeh="0"/>
        <edge id="-148186648#6" sampledSeconds="16.26" CO_abs="2218.695055" CO2_abs="145182.701050" HC_abs="13.659905" PMx_abs="3.159871" NOx_abs="61.368960" fuel_abs="62.407103" electricity_abs="0"
            CO_normed="435.024030" CO2_normed="28466.266014" HC_normed="2.678325" PMx_normed="0.619562" NOx_normed="12.032736" fuel_normed="12.236287" electricity_normed="0"
            traveltime="16.00" CO_perVeh="2183.025864" CO2_perVeh="142848.649073" HC_perVeh="13.440300" PMx_perVeh="3.109071" NOx_perVeh="60.382352" fuel_perVeh="61.403806" electricity_perVeh="0"/>
        <edge id="-148712765#8" sampledSeconds="15.82" CO_abs="2149.654195" CO2_abs="138096.930561" HC_abs="13.196078" PMx_abs="3.124407" NOx_abs="58.979345" fuel_abs="59.361138" electricity_abs="0"
            CO_normed="364.358461" CO2_normed="23406.920630" HC_normed="2.236687" PMx_normed="0.529575" NOx_normed="9.996782" fuel_normed="10.061494" electricity_normed="0"
            traveltime="15.60" CO_perVeh="2119.713888" CO2_perVeh="136173.521405" HC_perVeh="13.012283" PMx_perVeh="3.080890" NOx_perVeh="58.157883" fuel_perVeh="58.534358" electricity_perVeh="0"/>
        <edge id="-152342551#2" sampledSeconds="16.36" CO_abs="1798.879839" CO2_abs="104049.595742" HC_abs="10.709114" PMx_abs="2.196404" NOx_abs="44.323841" fuel_abs="44.726149" electricity_abs="0"
            CO_normed="457.419861" CO2_normed="26457.771421" HC_normed="2.723118" PMx_normed="0.558502" NOx_normed="11.270683" fuel_normed="11.372982" electricity_normed="0"
            traveltime="16.37" CO_perVeh="1799.642529" CO2_perVeh="104093.710724" HC_perVeh="10.713655" PMx_perVeh="2.197335" NOx_perVeh="44.342633" fuel_perVeh="44.745112" electricity_perVeh="0"/>
        <edge id="-16224187#4" sampledSeconds="38.47" CO_abs="1122.713141" CO2_abs="123031.510902" HC_abs="8.114914" PMx_abs="2.289520" NOx_abs="46.848530" fuel_abs="52.885586" electricity_abs="0"
            CO_normed="122.288805" CO2_normed="13400.908876" HC_normed="0.883897" PMx_normed="0.249380" NOx_normed="5.102862" fuel_normed="5.760434" electricity_normed="0"
            traveltime="27.13" CO_perVeh="791.853388" CO2_perVeh="86774.542169" HC_perVeh="5.723476" PMx_perVeh="1.614806" NOx_perVeh="33.042427" fuel_perVeh="37.300384" electricity_perVeh="0"/>
        <edge id="-165932" sampledSeconds="5.16" CO_abs="661.488485" CO2_abs="23185.663804" HC_abs="3.557681" PMx_abs="0.473394" NOx_abs="10.065245" fuel_abs="9.966671" electricity_abs="0"
            CO_normed="1532.405757" CO2_normed="53711.962481" HC_normed="8.241733" PMx_normed="1.096665" NOx_normed="23.317170" fuel_normed="23.088812" electricity_normed="0"
            traveltime="5.18" CO_perVeh="664.052394" CO2_perVeh="23275.530718" HC_perVeh="3.571471" PMx_perVeh="0.475228" NOx_perVeh="10.104258" fuel_perVeh="10.005301" electricity_perVeh="0"/>
        <edge id="-165936" sampledSeconds="2.90" CO_abs="6.433823" CO2_abs="310.611589" HC_abs="0.036716" PMx_abs="0.006531" NOx_abs="0.136093" fuel_abs="0.133518" electricity_abs="0"
            CO_normed="17.602800" CO2_normed="849.826508" HC_normed="0.100454" PMx_normed="0.017868" NOx_normed="0.372346" fuel_normed="0.365303" electricity_normed="0"
            traveltime="2.36" CO_perVeh="5.239278" CO2_perVeh="252.941409" HC_perVeh="0.029899" PMx_perVeh="0.005318" NOx_perVeh="0.110825" fuel_perVeh="0.108728" electricity_perVeh="0"/>
        <edge id="-165988" sampledSeconds="54.16" CO_abs="4912.707229" CO2_abs="121636.462185" HC_abs="25.242246" PMx_abs="2.717417" NOx_abs="53.723389" fuel_abs="52.288013" electricity_abs="0"
            CO_normed="3411.207427" CO2_normed="84459.989945" HC_normed="17.527309" PMx_normed="1.886877" NOx_normed="37.303591" fuel_normed="36.306918" electricity_normed="0"
            traveltime="29.58" CO_perVeh="2683.071615" CO2_perVeh="66431.668698" HC_perVeh="13.786035" PMx_perVeh="1.484115" NOx_perVeh="29.340991" fuel_perVeh="28.557062" electricity_perVeh="0"/>
        <edge id="-327779914" sampledSeconds="1.46" CO_abs="0" CO2_abs="0" HC_abs="0" PMx_abs="0" NOx_abs="0" fuel_abs="0" electricity_abs="0"
            CO_normed="0" CO2_normed="0" HC_normed="0" PMx_normed="0" NOx_normed="0" fuel_normed="0" electricity_normed="0"
            traveltime="1.06" CO_perVeh="0" CO2_perVeh="0" HC_perVeh="0" PMx_perVeh="0" NOx_perVeh="0" fuel_perVeh="0" electricity_perVeh="0"/>
        <edge id="-4310553#6" sampledSeconds="1.18" CO_abs="115.192975" CO2_abs="7899.589147" HC_abs="0.712625" PMx_abs="0.151350" NOx_abs="3.315388" fuel_abs="3.395671" electricity_abs="0"
            CO_normed="35.366006" CO2_normed="2425.294729" HC_normed="0.218787" PMx_normed="0.046467" NOx_normed="1.017875" fuel_normed="1.042523" electricity_normed="0"
            traveltime="16.44" CO_perVeh="1605.882917" CO2_perVeh="110126.639716" HC_perVeh="9.934561" PMx_perVeh="2.109938" NOx_perVeh="46.219178" fuel_perVeh="47.338392" electricity_perVeh="0"/>
        <edge id="-8003372#7" sampledSeconds="32.64" CO_abs="1467.041705" CO2_abs="122390.510116" HC_abs="9.645007" PMx_abs="2.483325" NOx_abs="49.684406" fuel_abs="52.609848" electricity_abs="0"
            CO_normed="154.268468" CO2_normed="12870.115684" HC_normed="1.014232" PMx_normed="0.261137" NOx_normed="5.224621" fuel_normed="5.532249" electricity_normed="0"
            traveltime="32.64" CO_perVeh="1467.301956" CO2_perVeh="122412.222033" HC_perVeh="9.646718" PMx_perVeh="2.483765" NOx_perVeh="49.693220" fuel_perVeh="52.619181" electricity_perVeh="0"/>
        <edge id="-8003373" sampledSeconds="5.57" CO_abs="757.325714" CO2_abs="30683.062575" HC_abs="4.176896" PMx_abs="0.638363" NOx_abs="13.364469" fuel_abs="13.189413" electricity_abs="0"
            CO_normed="1320.533067" CO2_normed="53501.416870" HC_normed="7.283167" PMx_normed="1.113101" NOx_normed="23.303346" fuel_normed="22.998104" electricity_normed="0"
            traveltime="5.58" CO_perVeh="759.533017" CO2_perVeh="30772.491495" HC_perVeh="4.189070" PMx_perVeh="0.640224" NOx_perVeh="13.403421" fuel_perVeh="13.227855" electricity_perVeh="0"/>
        <edge id="-8139879" sampledSeconds="18.20" CO_abs="2287.777572" CO2_abs="154714.086507" HC_abs="14.229471" PMx_abs="3.387277" NOx_abs="64.515459" fuel_abs="66.504200" electricity_abs="0"
            CO_normed="284.260710" CO2_normed="19223.519208" HC_normed="1.768039" PMx_normed="0.420876" NOx_normed="8.016168" fuel_normed="8.263273" electricity_normed="0"
            traveltime="22.30" CO_perVeh="2803.425579" CO2_perVeh="189585.488062" HC_perVeh="17.436688" PMx_perVeh="4.150744" NOx_perVeh="79.056762" fuel_perVeh="81.493750" electricity_perVeh="0"/>
        <edge id="13855468#0" sampledSeconds="20.93" CO_abs="1471.319084" CO2_abs="103189.113592" HC_abs="9.212122" PMx_abs="2.173800" NOx_abs="43.487176" fuel_abs="44.356052" electricity_abs="0"
            CO_normed="240.150014" CO2_normed="16842.619194" HC_normed="1.503611" PMx_normed="0.354809" NOx_normed="7.098016" fuel_normed="7.239834" electricity_normed="0"
            traveltime="20.65" CO_perVeh="1451.575135" CO2_perVeh="101804.396556" HC_perVeh="9.088502" PMx_perVeh="2.144629" NOx_perVeh="42.903612" fuel_perVeh="43.760829" electricity_perVeh="0"/>
        <edge id="147915073#0" sampledSeconds="15.85" CO_abs="2314.591571" CO2_abs="116917.736646" HC_abs="13.355072" PMx_abs="2.487926" NOx_abs="50.503201" fuel_abs="50.257734" electricity_abs="0"
            CO_normed="1055.284911" CO2_normed="53305.958957" HC_normed="6.088939" PMx_normed="1.134313" NOx_normed="23.025776" fuel_normed="22.913860" electricity_normed="0"
            traveltime="13.30" CO_perVeh="1941.798446" CO2_perVeh="98086.713106" HC_perVeh="11.204075" PMx_perVeh="2.087215" NOx_perVeh="42.369046" fuel_perVeh="42.163114" electricity_perVeh="0"/>
        <edge id="147915073#2" sampledSeconds="6.29" CO_abs="299.133729" CO2_abs="21092.851130" HC_abs="1.881538" PMx_abs="0.452949" NOx_abs="8.670121" fuel_abs="9.066819" electricity_abs="0"
            CO_normed="184.935845" CO2_normed="13040.402553" HC_normed="1.163238" PMx_normed="0.280030" NOx_normed="5.360198" fuel_normed="5.605453" electricity_normed="0"
            traveltime="5.98" CO_perVeh="284.477495" CO2_perVeh="20059.394435" HC_perVeh="1.789351" PMx_perVeh="0.430756" NOx_perVeh="8.245323" fuel_perVeh="8.622585" electricity_perVeh="0"/>
        <edge id="147946320#0" sampledSeconds="18.91" CO_abs="1482.997589" CO2_abs="23622.484628" HC_abs="7.307489" PMx_abs="0.593749" NOx_abs="10.839989" fuel_abs="10.154980" electricity_abs="0"
            CO_normed="1995.959070" CO2_normed="31793.384425" HC_normed="9.835112" PMx_normed="0.799124" NOx_normed="14.589488" fuel_normed="13.667537" electricity_normed="0"
            traveltime="19.35" CO_perVeh="1517.062256" CO2_perVeh="24165.096487" HC_perVeh="7.475343" PMx_perVeh="0.607387" NOx_perVeh="11.088986" fuel_perVeh="10.388241" electricity_perVeh="0"/>
        <edge id="148186359#0" sampledSeconds="2.00" CO_abs="288.518181" CO2_abs="7496.349698" HC_abs="1.489806" PMx_abs="0.163233" NOx_abs="3.322751" fuel_abs="3.222455" electricity_abs="0"
            CO_normed="131.114829" CO2_normed="3406.657441" HC_normed="0.677031" PMx_normed="0.074180" NOx_normed="1.509998" fuel_normed="1.464420" electricity_normed="0"
            traveltime="49.52" CO_perVeh="7143.438076" CO2_perVeh="185602.549072" HC_perVeh="36.886200" PMx_perVeh="4.041490" NOx_perVeh="82.268177" fuel_perVeh="79.784950" electricity_perVeh="0"/>
        <edge id="148186648#0" sampledSeconds="11.95" CO_abs="2019.169094" CO2_abs="113944.418946" HC_abs="11.964969" PMx_abs="2.496115" NOx_abs="49.304537" fuel_abs="48.979364" electricity_abs="0"
            CO_normed="776.553718" CO2_normed="43821.967417" HC_normed="4.601616" PMx_normed="0.959983" NOx_normed="18.962068" fuel_normed="18.837009" electricity_normed="0"
            traveltime="11.96" CO_perVeh="2020.464180" CO2_perVeh="114017.502403" HC_perVeh="11.972643" PMx_perVeh="2.497716" NOx_perVeh="49.336161" fuel_perVeh="49.010779" electricity_perVeh="0"/>
        <edge id="148186648#2" sampledSeconds="11.42" CO_abs="1048.233860" CO2_abs="72774.078023" HC_abs="6.599846" PMx_abs="1.638598" NOx_abs="29.050420" fuel_abs="31.282174" electricity_abs="0"
            CO_normed="206.643552" CO2_normed="14346.315815" HC_normed="1.301061" PMx_normed="0.323025" NOx_normed="5.726854" fuel_normed="6.166811" electricity_normed="0"
            traveltime="11.23" CO_perVeh="1031.291886" CO2_perVeh="71597.874279" HC_perVeh="6.493177" PMx_perVeh="1.612114" NOx_perVeh="28.580896" fuel_perVeh="30.776579" electricity_perVeh="0"/>
        <edge id="148608635#4" sampledSeconds="11.43" CO_abs="340.461544" CO2_abs="31457.358186" HC_abs="2.346174" PMx_abs="0.643353" NOx_abs="11.121593" fuel_abs="13.522157" electricity_abs="0"
            CO_normed="70.469479" CO2_normed="6511.113189" HC_normed="0.485616" PMx_normed="0.133163" NOx_normed="2.301972" fuel_normed="2.798846" electricity_normed="0"
            traveltime="11.23" CO_perVeh="334.688661" CO2_perVeh="30923.965651" HC_perVeh="2.306392" PMx_perVeh="0.632444" NOx_perVeh="10.933015" fuel_perVeh="13.292874" electricity_perVeh="0"/>
        <edge id="156265421#0" sampledSeconds="17.29" CO_abs="2613.898573" CO2_abs="148761.123469" HC_abs="15.530980" PMx_abs="3.287586" NOx_abs="64.219936" fuel_abs="63.945405" electricity_abs="0"
            CO_normed="573.013936" CO2_normed="32611.134118" HC_normed="3.404672" PMx_normed="0.720698" NOx_normed="14.078174" fuel_normed="14.017992" electricity_normed="0"
            traveltime="17.30" CO_perVeh="2614.853946" CO2_perVeh="148815.495225" HC_perVeh="15.536657" PMx_perVeh="3.288788" NOx_perVeh="64.243408" fuel_perVeh="63.968777" electricity_perVeh="0"/>
        <edge id="156265421#4" sampledSeconds="10.34" CO_abs="1169.067051" CO2_abs="60996.853111" HC_abs="6.792424" PMx_abs="1.275713" NOx_abs="25.986590" fuel_abs="26.219857" electricity_abs="0"
            CO_normed="1027.901862" CO2_normed="53631.465221" HC_normed="5.972237" PMx_normed="1.121670" NOx_normed="22.848702" fuel_normed="23.053802" electricity_normed="0"
            traveltime="5.16" CO_perVeh="582.719214" CO2_perVeh="30403.763655" HC_perVeh="3.385671" PMx_perVeh="0.635876" NOx_perVeh="12.952966" fuel_perVeh="13.069237" electricity_perVeh="0"/>
        <edge id="16224187#0" sampledSeconds="30.39" CO_abs="2183.506890" CO2_abs="160179.506717" HC_abs="13.827784" PMx_abs="3.197595" NOx_abs="65.072026" fuel_abs="68.853808" electricity_abs="0"
            CO_normed="238.183429" CO2_normed="17472.857252" HC_normed="1.508376" PMx_normed="0.348803" NOx_normed="7.098250" fuel_normed="7.510778" electricity_normed="0"
            traveltime="30.40" CO_perVeh="2183.903935" CO2_perVeh="160208.633441" HC_perVeh="13.830299" PMx_perVeh="3.198177" NOx_perVeh="65.083859" fuel_perVeh="68.866328" electricity_perVeh="0"/>
        <edge id="187714569#0" sampledSeconds="4.04" CO_abs="777.605175" CO2_abs="52409.326549" HC_abs="4.830557" PMx_abs="1.171959" NOx_abs="22.427231" fuel_abs="22.528189" electricity_abs="0"
            CO_normed="148.002508" CO2_normed="9975.128768" HC_normed="0.919406" PMx_normed="0.223060" NOx_normed="4.268601" fuel_normed="4.287817" electricity_normed="0"
            traveltime="15.06" CO_perVeh="2895.373514" CO2_perVeh="195143.474981" HC_perVeh="17.986336" PMx_perVeh="4.363731" NOx_perVeh="83.506660" fuel_perVeh="83.882572" electricity_perVeh="0"/>
        <edge id="23222183#0" sampledSeconds="1.35" CO_abs="146.293247" CO2_abs="7456.924291" HC_abs="0.842132" PMx_abs="0.143812" NOx_abs="3.175449" fuel_abs="3.205416" electricity_abs="0"
            CO_normed="1453.244172" CO2_normed="74075.406865" HC_normed="8.365551" PMx_normed="1.428598" NOx_normed="31.544191" fuel_normed="31.841884" electricity_normed="0"
            traveltime="0.74" CO_perVeh="80.037247" CO2_perVeh="4079.694087" HC_perVeh="0.460732" PMx_perVeh="0.078680" NOx_perVeh="1.737292" fuel_perVeh="1.753688" electricity_perVeh="0"/>
        <edge id="23222183#1" sampledSeconds="0.88" CO_abs="131.407483" CO2_abs="7792.001568" HC_abs="0.785853" PMx_abs="0.164082" NOx_abs="3.389194" fuel_abs="3.349414" electricity_abs="0"
            CO_normed="1684.711319" CO2_normed="99897.455995" HC_normed="10.075034" PMx_normed="2.103616" NOx_normed="43.451205" fuel_normed="42.941209" electricity_normed="0"
            traveltime="0.42" CO_perVeh="63.531717" CO2_perVeh="3767.207369" HC_perVeh="0.379937" PMx_perVeh="0.079329" NOx_perVeh="1.638577" fuel_perVeh="1.619345" electricity_perVeh="0"/>
        <edge id="23222183#2" sampledSeconds="0.93" CO_abs="132.966487" CO2_abs="8708.839577" HC_abs="0.815607" PMx_abs="0.182101" NOx_abs="3.751972" fuel_abs="3.743513" electricity_abs="0"
            CO_normed="1086.919510" CO2_normed="71189.424335" HC_normed="6.667091" PMx_normed="1.488562" NOx_normed="30.670068" fuel_normed="30.600921" electricity_normed="0"
            traveltime="0.55" CO_perVeh="79.090277" CO2_perVeh="5180.136345" HC_perVeh="0.485134" PMx_perVeh="0.108316" NOx_perVeh="2.231724" fuel_perVeh="2.226692" electricity_perVeh="0"/>
        <edge id="23222183#3" sampledSeconds="0.56" CO_abs="78.943906" CO2_abs="5419.969024" HC_abs="0.490562" PMx_abs="0.113393" NOx_abs="2.323652" fuel_abs="2.329783" electricity_abs="0"
            CO_normed="1489.507655" CO2_normed="102263.566494" HC_normed="9.255885" PMx_normed="2.139496" NOx_normed="43.842485" fuel_normed="43.958166" electricity_normed="0"
            traveltime="0.22" CO_perVeh="30.689685" CO2_perVeh="2107.029523" HC_perVeh="0.190707" PMx_perVeh="0.044082" NOx_perVeh="0.903327" fuel_perVeh="0.905710" electricity_perVeh="0"/>
        <edge id="23222184" sampledSeconds="2.67" CO_abs="106.844738" CO2_abs="4839.207695" HC_abs="0.601661" PMx_abs="0.100653" NOx_abs="2.115494" fuel_abs="2.080169" electricity_abs="0"
            CO_normed="500.053375" CO2_normed="22648.397947" HC_normed="2.815887" PMx_normed="0.471076" NOx_normed="9.900910" fuel_normed="9.735580" electricity_normed="0"
            traveltime="1.92" CO_perVeh="76.865855" CO2_perVeh="3481.405311" HC_perVeh="0.432845" PMx_perVeh="0.072412" NOx_perVeh="1.521921" fuel_perVeh="1.496508" electricity_perVeh="0"/>
        <edge id="23222186" sampledSeconds="1.78" CO_abs="112.901503" CO2_abs="6231.203112" HC_abs="0.662928" PMx_abs="0.127530" NOx_abs="2.696574" fuel_abs="2.678512" electricity_abs="0"
            CO_normed="702.706452" CO2_normed="38783.421859" HC_normed="4.126107" PMx_normed="0.793753" NOx_normed="16.783656" fuel_normed="16.671236" electricity_normed="0"
            traveltime="1.17" CO_perVeh="74.342247" CO2_perVeh="4103.059973" HC_perVeh="0.436518" PMx_perVeh="0.083974" NOx_perVeh="1.775613" fuel_perVeh="1.763720" electricity_perVeh="0"/>
        <edge id="23222196#0" sampledSeconds="3.67" CO_abs="19.625995" CO2_abs="6129.264035" HC_abs="0.238307" PMx_abs="0.093241" NOx_abs="2.049919" fuel_abs="2.634705" electricity_abs="0"
            CO_normed="19.714711" CO2_normed="6156.970402" HC_normed="0.239384" PMx_normed="0.093662" NOx_normed="2.059185" fuel_normed="2.646615" electricity_normed="0"
            traveltime="3.39" CO_perVeh="18.110006" CO2_perVeh="5655.815554" HC_perVeh="0.219899" PMx_perVeh="0.086038" NOx_perVeh="1.891575" fuel_perVeh="2.431190" electricity_perVeh="0"/>
        <edge id="23222198" sampledSeconds="2.24" CO_abs="357.537843" CO2_abs="23438.507218" HC_abs="2.196640" PMx_abs="0.501899" NOx_abs="10.125658" fuel_abs="10.075078" electricity_abs="0"
            CO_normed="1886.743237" CO2_normed="123686.053919" HC_normed="11.591766" PMx_normed="2.648545" NOx_normed="53.433549" fuel_normed="53.166636" electricity_normed="0"
            traveltime="0.78" CO_perVeh="124.166319" CO2_perVeh="8139.762586" HC_perVeh="0.762853" PMx_perVeh="0.174300" NOx_perVeh="3.516455" fuel_perVeh="3.498889" electricity_perVeh="0"/>
        <edge id="237973104" sampledSeconds="7.94" CO_abs="826.248387" CO2_abs="32759.600710" HC_abs="4.539997" PMx_abs="0.686080" NOx_abs="14.322345" fuel_abs="14.082039" electricity_abs="0"
            CO_normed="1009.055632" CO2_normed="40007.654032" HC_normed="5.544470" PMx_normed="0.837876" NOx_normed="17.491160" fuel_normed="17.197686" electricity_normed="0"
            traveltime="7.95" CO_perVeh="827.933576" CO2_perVeh="32826.416130" HC_perVeh="4.549256" PMx_perVeh="0.687480" NOx_perVeh="14.351556" fuel_perVeh="14.110760" electricity_perVeh="0"/>
        <edge id="243570008#0" sampledSeconds="9.84" CO_abs="1073.251294" CO2_abs="68670.313827" HC_abs="6.560261" PMx_abs="1.504623" NOx_abs="29.784559" fuel_abs="29.518018" electricity_abs="0"
            CO_normed="397.402355" CO2_normed="25427.171252" HC_normed="2.429127" PMx_normed="0.557130" NOx_normed="11.028595" fuel_normed="10.929901" electricity_normed="0"
            traveltime="9.55" CO_perVeh="1041.125716" CO2_perVeh="66614.808743" HC_perVeh="6.363893" PMx_perVeh="1.459585" NOx_perVeh="28.893019" fuel_perVeh="28.634457" electricity_perVeh="0"/>
        <edge id="327779913" sampledSeconds="6.95" CO_abs="1134.361289" CO2_abs="79531.733591" HC_abs="7.112430" PMx_abs="1.729702" NOx_abs="33.854640" fuel_abs="34.186798" electricity_abs="0"
            CO_normed="1102.213398" CO2_normed="77277.797821" HC_normed="6.910863" PMx_normed="1.680682" NOx_normed="32.895197" fuel_normed="33.217941" electricity_normed="0"
            traveltime="3.21" CO_perVeh="524.695203" CO2_perVeh="36787.150182" HC_perVeh="3.289832" PMx_perVeh="0.800068" NOx_perVeh="15.659356" fuel_perVeh="15.812994" electricity_perVeh="0"/>
        <edge id="38685657" sampledSeconds="3.89" CO_abs="555.288333" CO2_abs="22019.217259" HC_abs="3.051696" PMx_abs="0.464419" NOx_abs="9.657987" fuel_abs="9.465172" electricity_abs="0"
            CO_normed="1497.406740" CO2_normed="59377.664518" HC_normed="8.229294" PMx_normed="1.252365" NOx_normed="26.044010" fuel_normed="25.524060" electricity_normed="0"
            traveltime="3.91" CO_perVeh="557.795278" CO2_perVeh="22118.626818" HC_perVeh="3.065474" PMx_perVeh="0.466515" NOx_perVeh="9.701590" fuel_perVeh="9.507904" electricity_perVeh="0"/>
        <edge id="43246587#0" sampledSeconds="8.00" CO_abs="1124.567774" CO2_abs="55877.611624" HC_abs="6.459682" PMx_abs="1.171742" NOx_abs="24.208030" fuel_abs="24.019322" electricity_abs="0"
            CO_normed="203.566242" CO2_normed="10114.815355" HC_normed="1.169314" PMx_normed="0.212106" NOx_normed="4.382073" fuel_normed="4.347913" electricity_normed="0"
            traveltime="37.35" CO_perVeh="5250.934881" CO2_perVeh="260908.863516" HC_perVeh="30.162140" PMx_perVeh="5.471205" NOx_perVeh="113.034350" fuel_perVeh="112.153221" electricity_perVeh="0"/>
        <edge id="43246588#1" sampledSeconds="1.96" CO_abs="220.278218" CO2_abs="12387.784980" HC_abs="1.297192" PMx_abs="0.243302" NOx_abs="5.286668" fuel_abs="5.324960" electricity_abs="0"
            CO_normed="988.533514" CO2_normed="55592.153988" HC_normed="5.821357" PMx_normed="1.091857" NOx_normed="23.724761" fuel_normed="23.896606" electricity_normed="0"
            traveltime="1.43" CO_perVeh="160.322252" CO2_perVeh="9016.041654" HC_perVeh="0.944119" PMx_perVeh="0.177080" NOx_perVeh="3.847727" fuel_perVeh="3.875597" electricity_perVeh="0"/>
        <edge id="43285402" sampledSeconds="14.46" CO_abs="1684.658406" CO2_abs="109504.746852" HC_abs="10.391287" PMx_abs="2.507964" NOx_abs="46.196010" fuel_abs="47.070769" electricity_abs="0"
            CO_normed="278.532666" CO2_normed="18104.945746" HC_normed="1.718041" PMx_normed="0.414654" NOx_normed="7.637808" fuel_normed="7.782436" electricity_normed="0"
            traveltime="14.27" CO_perVeh="1661.762804" CO2_perVeh="108016.506204" HC_perVeh="10.250063" PMx_perVeh="2.473879" NOx_perVeh="45.568176" fuel_perVeh="46.431046" electricity_perVeh="0"/>
        <edge id="4399600#2" sampledSeconds="3.86" CO_abs="522.163251" CO2_abs="35171.743001" HC_abs="3.226683" PMx_abs="0.730082" NOx_abs="15.058891" fuel_abs="15.118648" electricity_abs="0"
            CO_normed="646.508359" CO2_normed="43547.349980" HC_normed="3.995067" PMx_normed="0.903940" NOx_normed="18.644933" fuel_normed="18.718921" electricity_normed="0"
            traveltime="3.50" CO_perVeh="473.326434" CO2_perVeh="31882.204748" HC_perVeh="2.924898" PMx_perVeh="0.661799" NOx_perVeh="13.650465" fuel_perVeh="13.704633" electricity_perVeh="0"/>
        <edge id="4415177#1" sampledSeconds="1.00" CO_abs="151.321940" CO2_abs="4010.422850" HC_abs="0.783614" PMx_abs="0.088936" NOx_abs="1.788812" fuel_abs="1.723955" electricity_abs="0"
            CO_normed="5973.234479" CO2_normed="158306.165122" HC_normed="30.932114" PMx_normed="3.510649" NOx_normed="70.611014" fuel_normed="68.050853" electricity_normed="0"
            traveltime="0.60" CO_perVeh="91.052892" CO2_perVeh="2413.137178" HC_perVeh="0.471513" PMx_perVeh="0.053515" NOx_perVeh="1.076358" fuel_perVeh="1.037332" electricity_perVeh="0"/>
        <edge id="4415178#0" sampledSeconds="50.00" CO_abs="6279.978185" CO2_abs="125147.902237" HC_abs="31.549133" PMx_abs="2.983583" NOx_abs="56.528540" fuel_abs="53.798238" electricity_abs="0"
            CO_normed="3677.519921" CO2_normed="73285.908005" HC_normed="18.474995" PMx_normed="1.747170" NOx_normed="33.102795" fuel_normed="31.503946" electricity_normed="0"
            traveltime="53.17" CO_perVeh="6677.603376" CO2_perVeh="133071.808514" HC_perVeh="33.546709" PMx_perVeh="3.172493" NOx_perVeh="60.107720" fuel_perVeh="57.204545" electricity_perVeh="0"/>
        <edge id="4950603#2" sampledSeconds="14.00" CO_abs="1610.433844" CO2_abs="98620.538665" HC_abs="9.710971" PMx_abs="2.026412" NOx_abs="41.711670" fuel_abs="42.392444" electricity_abs="0"
            CO_normed="146.587422" CO2_normed="8976.792512" HC_normed="0.883927" PMx_normed="0.184451" NOx_normed="3.796745" fuel_normed="3.858711" electricity_normed="0"
            traveltime="48.92" CO_perVeh="5627.504579" CO2_perVeh="344619.889218" HC_perVeh="33.934045" PMx_perVeh="7.081100" NOx_perVeh="145.757379" fuel_perVeh="148.136275" electricity_perVeh="0"/>
        <edge id="4968290#0" sampledSeconds="14.87" CO_abs="1398.150393" CO2_abs="102106.151580" HC_abs="8.855561" PMx_abs="2.140201" NOx_abs="42.742941" fuel_abs="43.890529" electricity_abs="0"
            CO_normed="186.756214" CO2_normed="13638.703210" HC_normed="1.182871" PMx_normed="0.285875" NOx_normed="5.709336" fuel_normed="5.862623" electricity_normed="0"
            traveltime="23.79" CO_perVeh="2236.320468" CO2_perVeh="163317.249638" HC_perVeh="14.164337" PMx_perVeh="3.423219" NOx_perVeh="68.366689" fuel_perVeh="70.202238" electricity_perVeh="0"/>
    </interval>
    <interval begin="60.00" end="120.00" id="emissionEdgeData1">
        <edge id="--165928#2" sampledSeconds="9.61" CO_abs="998.737417" CO2_abs="64390.518585" HC_abs="6.106964" PMx_abs="1.366867" NOx_abs="27.741056" fuel_abs="27.678394" electricity_abs="0"
            CO_normed="491.504634" CO2_normed="31688.247335" HC_normed="3.005395" PMx_normed="0.672671" NOx_normed="13.652094" fuel_normed="13.621257" electricity_normed="0"
            traveltime="9.23" CO_perVeh="959.392262" CO2_perVeh="61853.860904" HC_perVeh="5.866380" PMx_perVeh="1.313019" NOx_perVeh="26.648200" fuel_perVeh="26.588006" electricity_perVeh="0"/>
        <edge id="--165936" sampledSeconds="4.23" CO_abs="496.868536" CO2_abs="31122.640437" HC_abs="3.010902" PMx_abs="0.641680" NOx_abs="13.360306" fuel_abs="13.378163" electricity_abs="0"
            CO_normed="1423.692081" CO2_normed="89176.620163" HC_normed="8.627227" PMx_normed="1.838625" NOx_normed="38.281678" fuel_normed="38.332845" electricity_normed="0"
            traveltime="1.71" CO_perVeh="200.547940" CO2_perVeh="12561.836753" HC_perVeh="1.215272" PMx_perVeh="0.258997" NOx_perVeh="5.392537" fuel_perVeh="5.399744" electricity_perVeh="0"/>
        <edge id="-12689656#3" sampledSeconds="18.02" CO_abs="514.264653" CO2_abs="53720.172181" HC_abs="3.637487" PMx_abs="0.984510" NOx_abs="20.422739" fuel_abs="23.091866" electricity_abs="0"
            CO_normed="68.500120" CO2_normed="7155.534090" HC_normed="0.484514" PMx_normed="0.131137" NOx_normed="2.720312" fuel_normed="3.075840" electricity_normed="0"
            traveltime="24.59" CO_perVeh="701.627015" CO2_perVeh="73292.076102" HC_perVeh="4.962735" PMx_perVeh="1.343197" NOx_perVeh="27.863368" fuel_perVeh="31.504939" electricity_perVeh="0"/>
        <edge id="-13855736#9" sampledSeconds="60.00" CO_abs="9886.666667" CO2_abs="157483.333333" HC_abs="48.716667" PMx_abs="3.958333" NOx_abs="72.266667" fuel_abs="67.699910" electricity_abs="0"
            CO_normed="947.407088" CO2_normed="15091.115264" HC_normed="4.668360" PMx_normed="0.379314" NOx_normed="6.925079" fuel_normed="6.487462" electricity_normed="0"
            traveltime="100000.00" CO_perVeh="16477777.777778" CO2_perVeh="262472222.222222" HC_perVeh="81194.444444" PMx_perVeh="6597.222222" NOx_perVeh="120444.444444" fuel_perVeh="112833.183588" electricity_perVeh="0"/>
        <edge id="-147915073#1" sampledSeconds="23.36" CO_abs="2733.394305" CO2_abs="151165.230247" HC_abs="16.087069" PMx_abs="3.179816" NOx_abs="65.096411" fuel_abs="64.979038" electricity_abs="0"