<?xml version="1.0" encoding="UTF-8"?>

<!-- generated on 01/06/2017 12:15:11 by SUMO gui Version 0.29.0
<?xml version="1.0" encoding="UTF-8"?>

<configuration xmlns:xsi="http://www.w3.org/2001/XMLSchema-instance" xsi:noNamespaceSchemaLocation="http://sumo.dlr.de/xsd/sumo-gui.exeConfiguration.xsd">

    <input>
        <net-file value="cityNetwork.net.xml"/>
        <route-files value="cityNetwork.rou.xml"/>
        <additional-files value="cityNetworkAdditional.add.xml"/>
    </input>

    <output>
        <tripinfo-output value="tripinfo.xml"/>
    </output>

    <time>
        <begin value="0"/>
        <end value="3600"/>
    </time>

    <traci_server>
        <remote-port value="61854"/>
    </traci_server>

    <gui_only>
        <gui-settings-file value="cityNetwork.settings.xml"/>
    </gui_only>

</configuration>
-->

<tripinfos xmlns:xsi="http://www.w3.org/2001/XMLSchema-instance" xsi:noNamespaceSchemaLocation="http://sumo.dlr.de/xsd/tripinfo_file.xsd">
    <tripinfo id="9" depart="27.00" departLane="148186648#0_0" departPos="5.10" departSpeed="0.00" departDelay="0.00" arrival="51.00" arrivalLane="148186648#2_0" arrivalPos="304.36" arrivalSpeed="27.19" duration="24.00" routeLength="472.89" waitSteps="0" timeLoss="6.65" rerouteNo="0" devices="tripinfo_9" vType="DEFAULT_VEHTYPE" speedFactor="1.00" vaporized=""/>
    <tripinfo id="12" depart="36.00" departLane="-165932_0" departPos="5.10" departSpeed="0.00" departDelay="0.00" arrival="63.00" arrivalLane="-8139879_0" arrivalPos="482.89" arrivalSpeed="27.73" duration="27.00" routeLength="505.43" waitSteps="0" timeLoss="8.04" rerouteNo="0" devices="tripinfo_12" vType="DEFAULT_VEHTYPE" speedFactor="1.00" vaporized=""/>
    <tripinfo id="24" depart="72.00" departLane="4398476#2_0" departPos="5.10" departSpeed="0.00" departDelay="0.00" arrival="99.00" arrivalLane="4953888#0_0" arrivalPos="194.97" arrivalSpeed="21.59" duration="27.00" routeLength="387.51" waitSteps="0" timeLoss="4.92" rerouteNo="0" devices="tripinfo_24" vType="DEFAULT_VEHTYPE" speedFactor="1.00" vaporized=""/>
    <tripinfo id="7" depart="21.00" departLane="-8003373_0" departPos="5.10" departSpeed="0.00" departDelay="0.00" arrival="117.00" arrivalLane="4837135#0_0" arrivalPos="46.51" arrivalSpeed="19.91" duration="96.00" routeLength="1545.44" waitSteps="2" timeLoss="23.98" rerouteNo="0" devices="tripinfo_7" vType="DEFAULT_VEHTYPE" speedFactor="1.00" vaporized=""/>
    <tripinfo id="27" depart="81.00" departLane="12689656#0_0" departPos="5.10" departSpeed="0.00" departDelay="0.00" arrival="127.00" arrivalLane="148712765#0_0" arrivalPos="351.74" arrivalSpeed="26.84" duration="46.00" routeLength="812.86" waitSteps="0" timeLoss="12.35" rerouteNo="0" devices="tripinfo_27" vType="DEFAULT_VEHTYPE" speedFactor="1.00" vaporized=""/>
    <tripinfo id="4" depart="12.00" departLane="147915073#0_0" departPos="5.10" departSpeed="0.00" departDelay="0.00" arrival="129.00" arrivalLane="211482602#0_0" arrivalPos="288.70" arrivalSpeed="26.86" duration="117.00" routeLength="2061.02" waitSteps="0" timeLoss="31.39" rerouteNo="0" devices="tripinfo_4" vType="DEFAULT_VEHTYPE" speedFactor="1.00" vaporized=""/>
    <tripinfo id="43" depart="129.00" departLane="-148712765#8_0" departPos="5.10" departSpeed="0.00" departDelay="0.00" arrival="149.00" arrivalLane="-148712765#8_0" arrivalPos="353.99" arrivalSpeed="27.29" duration="20.00" routeLength="348.89" waitSteps="0" timeLoss="6.76" rerouteNo="0" devices="tripinfo_43" vType="DEFAULT_VEHTYPE" speedFactor="1.00" vaporized=""/>
    <tripinfo id="37" depart="111.00" departLane="43246588#0_0" departPos="4.43" departSpeed="0.00" departDelay="0.00" arrival="153.00" arrivalLane="23222198_0" arrivalPos="11.37" arrivalSpeed="21.08" duration="42.00" routeLength="709.75" waitSteps="0" timeLoss="9.14" rerouteNo="0" devices="tripinfo_37" vType="DEFAULT_VEHTYPE" speedFactor="1.00" vaporized=""/>
    <tripinfo id="11" depart="33.00" departLane="38685657_0" departPos="5.10" departSpeed="0.00" departDelay="0.00" arrival="156.00" arrivalLane="-13855468#5_0" arrivalPos="365.00" arrivalSpeed="21.19" duration="123.00" routeLength="2258.97" waitSteps="0" timeLoss="25.22" rerouteNo="0" devices="tripinfo_11" vType="DEFAULT_VEHTYPE" speedFactor="1.00" vaporized=""/>
    <tripinfo id="18" depart="54.00" departLane="147915073#0_0" departPos="5.10" departSpeed="0.00" departDelay="0.00" arrival="159.00" arrivalLane="12689656#0_0" arrivalPos="452.47" arrivalSpeed="22.04" duration="105.00" routeLength="1766.99" waitSteps="0" timeLoss="29.70" rerouteNo="0" devices="tripinfo_18" vType="DEFAULT_VEHTYPE" speedFactor="1.00" vaporized=""/>
    <tripinfo id="3" depart="9.00" departLane="4415178#0_0" departPos="5.10" departSpeed="0.00" departDelay="0.00" arrival="170.00" arrivalLane="148712765#0_0" arrivalPos="351.74" arrivalSpeed="27.30" duration="161.00" routeLength="2334.44" waitSteps="9" timeLoss="42.57" rerouteNo="0" devices="tripinfo_3" vType="DEFAULT_VEHTYPE" speedFactor="1.00" vaporized=""/>
    <tripinfo id="44" depart="132.00" departLane="23222183#0_0" departPos="5.10" departSpeed="0.00" departDelay="0.00" arrival="174.00" arrivalLane="43246588#3_1" arrivalPos="5.20" arrivalSpeed="10.47" duration="42.00" routeLength="717.79" waitSteps="0" timeLoss="9.88" rerouteNo="0" devices="tripinfo_44" vType="DEFAULT_VEHTYPE" speedFactor="1.00" vaporized=""/>
    <tripinfo id="39" depart="117.00" departLane="-147915073#1_0" departPos="5.10" departSpeed="0.00" departDelay="0.00" arrival="185.00" arrivalLane="187714569#0_0" arrivalPos="315.24" arrivalSpeed="27.08" duration="68.00" routeLength="1050.75" waitSteps="0" timeLoss="13.01" rerouteNo="0" devices="tripinfo_39" vType="DEFAULT_VEHTYPE" speedFactor="1.00" vaporized=""/>
    <tripinfo id="19" depart="57.00" departLane="148186359#0_0" departPos="5.10" departSpeed="0.00" departDelay="0.00" arrival="192.00" arrivalLane="8003381_0" arrivalPos="10.22" arrivalSpeed="17.59" duration="135.00" routeLength="1925.40" waitSteps="0" timeLoss="43.38" rerouteNo="0" devices="tripinfo_19" vType="DEFAULT_VEHTYPE" speedFactor="1.00" vaporized=""/>
    <tripinfo id="6" depart="18.00" departLane="-165988_0" departPos="5.10" departSpeed="0.00" departDelay="0.00" arrival="199.00" arrivalLane="8003370#1_0" arrivalPos="411.96" arrivalSpeed="8.04" duration="181.00" routeLength="1936.68" waitSteps="40" timeLoss="58.68" rerouteNo="0" devices="tripinfo_6" vType="DEFAULT_VEHTYPE" speedFactor="1.00" vaporized=""/>
    <tripinfo id="50" depart="154.00" departLane="148186648#0_0" departPos="5.10" departSpeed="0.00" departDelay="4.00" arrival="210.00" arrivalLane="--165936_0" arrivalPos="20.94" arrivalSpeed="12.53" duration="56.00" routeLength="1082.03" waitSteps="0" timeLoss="12.51" rerouteNo="0" devices="tripinfo_50" vType="DEFAULT_VEHTYPE" speedFactor="1.00" vaporized=""/>
    <tripinfo id="63" depart="189.00" departLane="187714560_0" departPos="5.10" departSpeed="0.00" departDelay="0.00" arrival="211.00" arrivalLane="-165970_0" arrivalPos="79.14" arrivalSpeed="13.15" duration="22.00" routeLength="202.83" waitSteps="0" timeLoss="7.84" rerouteNo="0" devices="tripinfo_63" vType="DEFAULT_VEHTYPE" speedFactor="1.00" vaporized=""/>
    <tripinfo id="34" depart="102.00" departLane="-165928#0_0" departPos="5.10" departSpeed="0.00" departDelay="0.00" arrival="217.00" arrivalLane="-8139879_0" arrivalPos="482.89" arrivalSpeed="26.60" duration="115.00" routeLength="2253.56" waitSteps="2" timeLoss="28.71" rerouteNo="0" devices="tripinfo_34" vType="DEFAULT_VEHTYPE" speedFactor="1.00" vaporized=""/>
    <tripinfo id="10" depart="30.00" departLane="--165928#2_0" departPos="5.10" departSpeed="0.00" departDelay="0.00" arrival="218.00" arrivalLane="43246587#0_0" arrivalPos="331.46" arrivalSpeed="21.06" duration="188.00" routeLength="3543.17" waitSteps="0" timeLoss="25.30" rerouteNo="0" devices="tripinfo_10" vType="DEFAULT_VEHTYPE" speedFactor="1.00" vaporized=""/>
    <tripinfo id="36" depart="108.00" departLane="-165964_0" departPos="5.10" departSpeed="0.00" departDelay="0.00" arrival="228.00" arrivalLane="-148186648#1_0" arrivalPos="156.05" arrivalSpeed="26.07" duration="120.00" routeLength="2026.34" waitSteps="0" timeLoss="21.13" rerouteNo="0" devices="tripinfo_36" vType="DEFAULT_VEHTYPE" speedFactor="1.00" vaporized=""/>
    <tripinfo id="29" depart="87.00" departLane="-187714569#8_0" departPos="5.10" departSpeed="0.00" departDelay="0.00" arrival="240.00" arrivalLane="327779914_0" arrivalPos="13.00" arrivalSpeed="18.01" duration="153.00" routeLength="2644.89" waitSteps="1" timeLoss="41.40" rerouteNo="0" devices="tripinfo_29" vType="DEFAULT_VEHTYPE" speedFactor="1.00" vaporized=""/>
    <tripinfo id="59" depart="177.00" departLane="327779913_0" departPos="5.10" departSpeed="0.00" departDelay="0.00" arrival="242.00" arrivalLane="4398476#1_0" arrivalPos="25.29" arrivalSpeed="12.89" duration="65.00" routeLength="1105.10" waitSteps="0" timeLoss="9.65" rerouteNo="0" devices="tripinfo_59" vType="DEFAULT_VEHTYPE" speedFactor="1.00" vaporized=""/>
    <tripinfo id="23" depart="69.00" departLane="4415136_0" departPos="5.10" departSpeed="0.00" departDelay="0.00" arrival="242.00" arrivalLane="4310553#4_0" arrivalPos="195.03" arrivalSpeed="27.22" duration="173.00" routeLength="2636.39" waitSteps="0" timeLoss="28.02" rerouteNo="0" devices="tripinfo_23" vType="DEFAULT_VEHTYPE" speedFactor="1.00" vaporized=""/>
    <tripinfo id="26" depart="78.00" departLane="-15092428#1_0" departPos="5.10" departSpeed="0.00" departDelay="0.00" arrival="245.00" arrivalLane="-43285401#1_0" arrivalPos="429.30" arrivalSpeed="21.65" duration="167.00" routeLength="3178.08" waitSteps="0" timeLoss="36.56" rerouteNo="0" devices="tripinfo_26" vType="DEFAULT_VEHTYPE" speedFactor="1.00" vaporized=""/>
    <tripinfo id="20" depart="60.00" departLane="-165928#0_0" departPos="5.10" departSpeed="0.00" departDelay="0.00" arrival="246.00" arrivalLane="-16224187#4_0" arrivalPos="550.85" arrivalSpeed="21.99" duration="186.00" routeLength="3823.59" waitSteps="0" timeLoss="31.50" rerouteNo="0" devices="tripinfo_20" vType="DEFAULT_VEHTYPE" speedFactor="1.00" vaporized=""/>
    <tripinfo id="54" depart="162.00" departLane="8003382#0_0" departPos="5.10" departSpeed="0.00" departDelay="0.00" arrival="256.00" arrivalLane="4398476#4_1" arrivalPos="33.85" arrivalSpeed="12.60" duration="94.00" routeLength="1487.16" waitSteps="0" timeLoss="22.11" rerouteNo="0" devices="tripinfo_54" vType="DEFAULT_VEHTYPE" speedFactor="1.00" vaporized=""/>
    <tripinfo id="40" depart="120.00" departLane="-43285401#1_0" departPos="5.10" departSpeed="0.00" departDelay="0.00" arrival="258.00" arrivalLane="4953884_0" arrivalPos="428.30" arrivalSpeed="21.47" duration="138.00" routeLength="2299.75" waitSteps="1" timeLoss="30.51" rerouteNo="0" devices="tripinfo_40" vType="DEFAULT_VEHTYPE" speedFactor="1.00" vaporized=""/>
    <tripinfo id="56" depart="168.00" departLane="-43341566#2_0" departPos="5.10" departSpeed="0.00" departDelay="0.00" arrival="259.00" arrivalLane="4415135_0" arrivalPos="17.47" arrivalSpeed="12.78" duration="91.00" routeLength="1726.55" waitSteps="0" timeLoss="20.65" rerouteNo="0" devices="tripinfo_56" vType="DEFAULT_VEHTYPE" speedFactor="1.00" vaporized=""/>
    <tripinfo id="14" depart="42.00" departLane="4415177#1_0" departPos="1.52" departSpeed="0.00" departDelay="0.00" arrival="266.00" arrivalLane="-165920_0" arrivalPos="117.49" arrivalSpeed="26.92" duration="224.00" routeLength="1957.38" waitSteps="114" timeLoss="144.15" rerouteNo="0" devices="tripinfo_14" vType="DEFAULT_VEHTYPE" speedFactor="1.00" vaporized=""/>
    <tripinfo id="77" depart="231.00" departLane="-166006_0" departPos="5.10" departSpeed="0.00" departDelay="0.00" arrival="281.00" arrivalLane="-148608635#3_0" arrivalPos="361.44" arrivalSpeed="27.02" duration="50.00" routeLength="1015.78" waitSteps="0" timeLoss="12.10" rerouteNo="0" devices="tripinfo_77" vType="DEFAULT_VEHTYPE" speedFactor="1.00" vaporized=""/>
    <tripinfo id="84" depart="252.00" departLane="4953888#0_0" departPos="5.10" departSpeed="0.00" departDelay="0.00" arrival="282.00" arrivalLane="43246587#0_0" arrivalPos="331.46" arrivalSpeed="21.45" duration="30.00" routeLength="521.64" waitSteps="0" timeLoss="6.45" rerouteNo="0" devices="tripinfo_84" vType="DEFAULT_VEHTYPE" speedFactor="1.00" vaporized=""/>
    <tripinfo id="70" depart="210.00" departLane="-147915073#4_0" departPos="5.10" departSpeed="0.00" departDelay="0.00" arrival="296.00" arrivalLane="23222183#4_0" arrivalPos="4.56" arrivalSpeed="17.09" duration="86.00" routeLength="1546.62" waitSteps="0" timeLoss="23.41" rerouteNo="0" devices="tripinfo_70" vType="DEFAULT_VEHTYPE" speedFactor="1.00" vaporized=""/>
    <tripinfo id="68" depart="207.00" departLane="23222196#0_0" departPos="5.10" departSpeed="0.00" departDelay="3.00" arrival="298.00" arrivalLane="4953885#0_0" arrivalPos="129.33" arrivalSpeed="12.81" duration="91.00" routeLength="1482.00" waitSteps="2" timeLoss="22.07" rerouteNo="0" devices="tripinfo_68" vType="DEFAULT_VEHTYPE" speedFactor="1.00" vaporized=""/>
    <tripinfo id="76" depart="228.00" departLane="4415174_0" departPos="5.10" departSpeed="0.00" departDelay="0.00" arrival="303.00" arrivalLane="43341566#0_0" arrivalPos="321.50" arrivalSpeed="20.92" duration="75.00" routeLength="1194.00" waitSteps="0" timeLoss="13.95" rerouteNo="0" devices="tripinfo_76" vType="DEFAULT_VEHTYPE" speedFactor="1.00" vaporized=""/>
    <tripinfo id="83" depart="249.00" departLane="-165986_0" departPos="5.10" departSpeed="0.00" departDelay="0.00" arrival="303.00" arrivalLane="-147915073#4_0" arrivalPos="96.87" arrivalSpeed="20.25" duration="54.00" routeLength="795.63" waitSteps="0" timeLoss="13.46" rerouteNo="0" devices="tripinfo_83" vType="DEFAULT_VEHTYPE" speedFactor="1.00" vaporized=""/>
    <tripinfo id="62" depart="191.00" departLane="43246588#1_0" departPos="5.10" departSpeed="0.00" departDelay="5.00" arrival="305.00" arrivalLane="94197110#0_0" arrivalPos="148.34" arrivalSpeed="21.89" duration="114.00" routeLength="2149.74" waitSteps="0" timeLoss="16.45" rerouteNo="0" devices="tripinfo_62" vType="DEFAULT_VEHTYPE" speedFactor="1.00" vaporized=""/>
    <tripinfo id="69" depart="210.00" departLane="23222196#0_0" departPos="5.10" departSpeed="0.00" departDelay="3.00" arrival="314.00" arrivalLane="4310553#4_0" arrivalPos="195.03" arrivalSpeed="27.07" duration="104.00" routeLength="1612.98" waitSteps="0" timeLoss="28.83" rerouteNo="0" devices="tripinfo_69" vType="DEFAULT_VEHTYPE" speedFactor="1.00" vaporized=""/>
    <tripinfo id="73" depart="219.00" departLane="-4497579#1_0" departPos="5.10" departSpeed="0.00" departDelay="0.00" arrival="317.00" arrivalLane="-165928#0_0" arrivalPos="123.22" arrivalSpeed="27.71" duration="98.00" routeLength="1860.58" waitSteps="3" timeLoss="25.43" rerouteNo="0" devices="tripinfo_73" vType="DEFAULT_VEHTYPE" speedFactor="1.00" vaporized=""/>
    <tripinfo id="64" depart="192.00" departLane="23646350_0" departPos="5.10" departSpeed="0.00" departDelay="0.00" arrival="323.00" arrivalLane="-165966_0" arrivalPos="50.67" arrivalSpeed="13.39" duration="131.00" routeLength="1986.95" waitSteps="10" timeLoss="37.69" rerouteNo="0" devices="tripinfo_64" vType="DEFAULT_VEHTYPE" speedFactor="1.00" vaporized=""/>
    <tripinfo id="86" depart="258.00" departLane="43335375#0_0" departPos="5.10" departSpeed="0.00" departDelay="0.00" arrival="328.00" arrivalLane="8003373_0" arrivalPos="34.41" arrivalSpeed="22.15" duration="70.00" routeLength="1369.01" waitSteps="0" timeLoss="11.98" rerouteNo="0" devices="tripinfo_86" vType="DEFAULT_VEHTYPE" speedFactor="1.00" vaporized=""/>
    <tripinfo id="75" depart="225.00" departLane="23217665_0" departPos="0.20" departSpeed="0.00" departDelay="0.00" arrival="333.00" arrivalLane="237973107#2_0" arrivalPos="44.62" arrivalSpeed="21.12" duration="108.00" routeLength="1985.83" waitSteps="0" timeLoss="17.90" rerouteNo="0" devices="tripinfo_75" vType="DEFAULT_VEHTYPE" speedFactor="1.00" vaporized=""/>
    <tripinfo id="88" depart="264.00" departLane="23222183#2_0" departPos="5.10" departSpeed="0.00" departDelay="0.00" arrival="333.00" arrivalLane="16224187#0_0" arrivalPos="550.04" arrivalSpeed="21.19" duration="69.00" routeLength="1267.40" waitSteps="0" timeLoss="11.86" rerouteNo="0" devices="tripinfo_88" vType="DEFAULT_VEHTYPE" speedFactor="1.00" vaporized=""/>
    <tripinfo id="96" depart="288.00" departLane="-13855468#5_0" departPos="5.10" departSpeed="0.00" departDelay="0.00" arrival="337.00" arrivalLane="43335369_0" arrivalPos="26.40" arrivalSpeed="12.66" duration="49.00" routeLength="706.12" waitSteps="0" timeLoss="15.82" rerouteNo="0" devices="tripinfo_96" vType="DEFAULT_VEHTYPE" speedFactor="1.00" vaporized=""/>
    <tripinfo id="87" depart="261.00" departLane="4399600#2_0" departPos="5.10" departSpeed="0.00" departDelay="0.00" arrival="338.00" arrivalLane="-43341566#2_0" arrivalPos="321.48" arrivalSpeed="21.99" duration="77.00" routeLength="1498.50" waitSteps="0" timeLoss="13.55" rerouteNo="0" devices="tripinfo_87" vType="DEFAULT_VEHTYPE" speedFactor="1.00" vaporized=""/>
    <tripinfo id="60" depart="180.00" departLane="-13855468#5_0" departPos="5.10" departSpeed="0.00" departDelay="0.00" arrival="342.00" arrivalLane="-327779914_0" arrivalPos="13.00" arrivalSpeed="21.97" duration="162.00" routeLength="2863.04" waitSteps="0" timeLoss="38.83" rerouteNo="0" devices="tripinfo_60" vType="DEFAULT_VEHTYPE" speedFactor="1.00" vaporized=""/>
    <tripinfo id="13" depart="39.00" departLane="156265421#0_0" departPos="5.10" departSpeed="0.00" departDelay="0.00" arrival="342.00" arrivalLane="166170572#0_0" arrivalPos="264.38" arrivalSpeed="26.51" duration="303.00" routeLength="1893.32" waitSteps="203" timeLoss="229.45" rerouteNo="0" devices="tripinfo_13" vType="DEFAULT_VEHTYPE" speedFactor="1.00" vaporized=""/>
    <tripinfo id="79" depart="237.00" departLane="43335375#1_0" departPos="5.10" departSpeed="0.00" departDelay="0.00" arrival="348.00" arrivalLane="23222183#1_0" arrivalPos="4.68" arrivalSpeed="12.55" duration="111.00" routeLength="2018.44" waitSteps="0" timeLoss="27.47" rerouteNo="0" devices="tripinfo_79" vType="DEFAULT_VEHTYPE" speedFactor="1.00" vaporized=""/>
    <tripinfo id="81" depart="243.00" departLane="--165928#2_0" departPos="5.10" departSpeed="0.00" departDelay="0.00" arrival="351.00" arrivalLane="-165920_0" arrivalPos="117.49" arrivalSpeed="22.15" duration="108.00" routeLength="2119.92" waitSteps="2" timeLoss="22.23" rerouteNo="0" devices="tripinfo_81" vType="DEFAULT_VEHTYPE" speedFactor="1.00" vaporized=""/>
    <tripinfo id="91" depart="273.00" departLane="-165936_0" departPos="5.10" departSpeed="0.00" departDelay="0.00" arrival="358.00" arrivalLane="4399597_0" arrivalPos="26.87" arrivalSpeed="27.60" duration="85.00" routeLength="893.88" waitSteps="21" timeLoss="48.08" rerouteNo="0" devices="tripinfo_91" vType="DEFAULT_VEHTYPE" speedFactor="1.00" vaporized=""/>
    <tripinfo id="94" depart="282.00" departLane="4399600#2_0" departPos="5.10" departSpeed="0.00" departDelay="0.00" arrival="363.00" arrivalLane="4415136_0" arrivalPos="299.75" arrivalSpeed="27.57" duration="81.00" routeLength="1747.54" waitSteps="0" timeLoss="12.93" rerouteNo="0" devices="tripinfo_94" vType="DEFAULT_VEHTYPE" speedFactor="1.00" vaporized=""/>
    <tripinfo id="101" depart="303.00" departLane="-165936_0" departPos="5.10" departSpeed="0.00" departDelay="0.00" arrival="364.00" arrivalLane="166170572#0_0" arrivalPos="264.38" arrivalSpeed="27.10" duration="61.00" routeLength="864.15" waitSteps="2" timeLoss="25.11" rerouteNo="0" devices="tripinfo_101" vType="DEFAULT_VEHTYPE" speedFactor="1.00" vaporized=""/>
    <tripinfo id="2" depart="6.00" departLane="156265421#4_0" departPos="5.10" departSpeed="0.00" departDelay="0.00" arrival="365.00" arrivalLane="43335375#1_0" arrivalPos="20.50" arrivalSpeed="12.30" duration="359.00" routeLength="2448.42" waitSteps="224" timeLoss="260.40" rerouteNo="0" devices="tripinfo_2" vType="DEFAULT_VEHTYPE" speedFactor="1.00" vaporized=""/>
    <tripinfo id="22" depart="69.00" departLane="-4310553#3_0" departPos="5.10" departSpeed="0.00" departDelay="3.00" arrival="367.00" arrivalLane="-165956_0" arrivalPos="29.73" arrivalSpeed="13.25" duration="298.00" routeLength="1158.05" waitSteps="217" timeLoss="236.40" rerouteNo="0" devices="tripinfo_22" vType="DEFAULT_VEHTYPE" speedFactor="1.00" vaporized=""/>
    <tripinfo id="104" depart="312.00" departLane="4953885#0_0" departPos="5.10" departSpeed="0.00" departDelay="0.00" arrival="375.00" arrivalLane="23222183#1_0" arrivalPos="4.68" arrivalSpeed="11.87" duration="63.00" routeLength="933.13" waitSteps="0" timeLoss="17.37" rerouteNo="0" devices="tripinfo_104" vType="DEFAULT_VEHTYPE" speedFactor="1.00" vaporized=""/>
    <tripinfo id="58" depart="174.00" departLane="-148712765#8_0" departPos="5.10" departSpeed="0.00" departDelay="0.00" arrival="388.00" arrivalLane="39970196_0" arrivalPos="266.91" arrivalSpeed="21.36" duration="214.00" routeLength="3909.96" waitSteps="0" timeLoss="48.23" rerouteNo="0" devices="tripinfo_58" vType="DEFAULT_VEHTYPE" speedFactor="1.00" vaporized=""/>
    <tripinfo id="25" depart="75.00" departLane="-152342551#2_0" departPos="5.10" departSpeed="0.00" departDelay="0.00" arrival="391.00" arrivalLane="-165932_0" arrivalPos="25.90" arrivalSpeed="27.45" duration="316.00" routeLength="654.65" waitSteps="259" timeLoss="285.55" rerouteNo="0" devices="tripinfo_25" vType="DEFAULT_VEHTYPE" speedFactor="1.00" vaporized=""/>
    <tripinfo id="41" depart="124.00" departLane="4415136_0" departPos="5.10" departSpeed="0.00" departDelay="1.00" arrival="397.00" arrivalLane="43246587#0_0" arrivalPos="331.46" arrivalSpeed="21.28" duration="273.00" routeLength="3834.60" waitSteps="1" timeLoss="41.11" rerouteNo="0" devices="tripinfo_41" vType="DEFAULT_VEHTYPE" speedFactor="1.00" vaporized=""/>
    <tripinfo id="74" depart="222.00" departLane="165236557#3_0" departPos="5.10" departSpeed="0.00" departDelay="0.00" arrival="404.00" arrivalLane="-165970_0" arrivalPos="79.14" arrivalSpeed="12.45" duration="182.00" routeLength="2532.04" waitSteps="20" timeLoss="68.53" rerouteNo="0" devices="tripinfo_74" vType="DEFAULT_VEHTYPE" speedFactor="1.00" vaporized=""/>
    <tripinfo id="90" depart="270.00" departLane="4953888#0_0" departPos="5.10" departSpeed="0.00" departDelay="0.00" arrival="406.00" arrivalLane="23646350_0" arrivalPos="31.64" arrivalSpeed="21.14" duration="136.00" routeLength="2421.32" waitSteps="0" timeLoss="26.55" rerouteNo="0" devices="tripinfo_90" vType="DEFAULT_VEHTYPE" speedFactor="1.00" vaporized=""/>
    <tripinfo id="117" depart="351.00" departLane="38685674_0" departPos="5.10" departSpeed="0.00" departDelay="0.00" arrival="409.00" arrivalLane="-12689656#3_0" arrivalPos="450.45" arrivalSpeed="20.95" duration="58.00" routeLength="1066.35" waitSteps="0" timeLoss="9.52" rerouteNo="0" devices="tripinfo_117" vType="DEFAULT_VEHTYPE" speedFactor="1.00" vaporized=""/>
    <tripinfo id="102" depart="306.00" departLane="43335375#0_0" departPos="5.10" departSpeed="0.00" departDelay="0.00" arrival="417.00" arrivalLane="23222184_0" arrivalPos="12.82" arrivalSpeed="21.24" duration="111.00" routeLength="2050.80" waitSteps="0" timeLoss="24.74" rerouteNo="0" devices="tripinfo_102" vType="DEFAULT_VEHTYPE" speedFactor="1.00" vaporized=""/>
    <tripinfo id="66" depart="198.00" departLane="150785474#0_0" departPos="5.10" departSpeed="0.00" departDelay="0.00" arrival="421.00" arrivalLane="-165928#0_0" arrivalPos="123.22" arrivalSpeed="27.56" duration="223.00" routeLength="1746.62" waitSteps="109" timeLoss="125.64" rerouteNo="0" devices="tripinfo_66" vType="DEFAULT_VEHTYPE" speedFactor="1.00" vaporized=""/>
    <tripinfo id="131" depart="393.00" departLane="4415177#1_0" departPos="1.52" departSpeed="0.00" departDelay="0.00" arrival="425.00" arrivalLane="-165960_0" arrivalPos="77.64" arrivalSpeed="13.00" duration="32.00" routeLength="302.95" waitSteps="1" timeLoss="9.29" rerouteNo="0" devices="tripinfo_131" vType="DEFAULT_VEHTYPE" speedFactor="1.00" vaporized=""/>
    <tripinfo id="113" depart="339.00" departLane="-211482602#2_0" departPos="5.10" departSpeed="0.00" departDelay="0.00" arrival="428.00" arrivalLane="-165928#0_0" arrivalPos="123.22" arrivalSpeed="26.72" duration="89.00" routeLength="1911.66" waitSteps="0" timeLoss="15.56" rerouteNo="0" devices="tripinfo_113" vType="DEFAULT_VEHTYPE" speedFactor="1.00" vaporized=""/>
    <tripinfo id="134" depart="402.00" departLane="4398476#4_0" departPos="5.10" departSpeed="0.00" departDelay="0.00" arrival="438.00" arrivalLane="23646350_0" arrivalPos="31.64" arrivalSpeed="21.92" duration="36.00" routeLength="630.84" waitSteps="0" timeLoss="4.75" rerouteNo="0" devices="tripinfo_134" vType="DEFAULT_VEHTYPE" speedFactor="1.00" vaporized=""/>
    <tripinfo id="15" depart="45.00" departLane="4950603#2_0" departPos="5.10" departSpeed="0.00" departDelay="0.00" arrival="440.00" arrivalLane="237973107#3_0" arrivalPos="979.13" arrivalSpeed="22.11" duration="395.00" routeLength="4544.69" waitSteps="144" timeLoss="178.15" rerouteNo="0" devices="tripinfo_15" vType="DEFAULT_VEHTYPE" speedFactor="1.00" vaporized=""/>
    <tripinfo id="8" depart="24.00" departLane="-152342551#2_0" departPos="5.10" departSpeed="0.00" departDelay="0.00" arrival="441.00" arrivalLane="4415136_0" arrivalPos="299.75" arrivalSpeed="26.87" duration="417.00" routeLength="2099.03" waitSteps="316" timeLoss="335.12" rerouteNo="0" devices="tripinfo_8" vType="DEFAULT_VEHTYPE" speedFactor="1.00" vaporized=""/>
    <tripinfo id="5" depart="15.00" departLane="-13855736#9_0" departPos="5.10" departSpeed="0.00" departDelay="0.00" arrival="443.00" arrivalLane="-4310553#6_0" arrivalPos="195.43" arrivalSpeed="26.63" duration="428.00" routeLength="2061.90" waitSteps="311" timeLoss="348.38" rerouteNo="0" devices="tripinfo_5" vType="DEFAULT_VEHTYPE" speedFactor="1.00" vaporized=""/>
    <tripinfo id="55" depart="165.00" departLane="-4415136_0" departPos="5.10" departSpeed="0.00" departDelay="0.00" arrival="448.00" arrivalLane="43858421_0" arrivalPos="40.28" arrivalSpeed="5.97" duration="283.00" routeLength="1959.61" waitSteps="171" timeLoss="198.60" rerouteNo="0" devices="tripinfo_55" vType="DEFAULT_VEHTYPE" speedFactor="1.00" vaporized=""/>
    <tripinfo id="116" depart="348.00" departLane="4950603#2_0" departPos="5.10" departSpeed="0.00" departDelay="0.00" arrival="449.00" arrivalLane="-148186648#1_0" arrivalPos="156.05" arrivalSpeed="26.94" duration="101.00" routeLength="1730.29" waitSteps="11" timeLoss="27.79" rerouteNo="0" devices="tripinfo_116" vType="DEFAULT_VEHTYPE" speedFactor="1.00" vaporized=""/>
    <tripinfo id="111" depart="333.00" departLane="150785474#0_0" departPos="5.10" departSpeed="0.00" departDelay="0.00" arrival="451.00" arrivalLane="13855468#0_0" arrivalPos="367.60" arrivalSpeed="21.93" duration="118.00" routeLength="1033.47" waitSteps="34" timeLoss="55.53" rerouteNo="0" devices="tripinfo_111" vType="DEFAULT_VEHTYPE" speedFactor="1.00" vaporized=""/>
    <tripinfo id="115" depart="345.00" departLane="-147915073#4_0" departPos="5.10" departSpeed="0.00" departDelay="0.00" arrival="453.00" arrivalLane="-148712765#8_0" arrivalPos="353.99" arrivalSpeed="27.58" duration="108.00" routeLength="1127.20" waitSteps="25" timeLoss="47.65" rerouteNo="0" devices="tripinfo_115" vType="DEFAULT_VEHTYPE" speedFactor="1.00" vaporized=""/>
    <tripinfo id="124" depart="372.00" departLane="-148608635#6_0" departPos="5.10" departSpeed="0.00" departDelay="0.00" arrival="463.00" arrivalLane="-189049904#4_0" arrivalPos="352.33" arrivalSpeed="22.07" duration="91.00" routeLength="1506.78" waitSteps="0" timeLoss="13.41" rerouteNo="0" devices="tripinfo_124" vType="DEFAULT_VEHTYPE" speedFactor="1.00" vaporized=""/>
    <tripinfo id="17" depart="51.00" departLane="43246587#0_0" departPos="5.10" departSpeed="0.00" departDelay="0.00" arrival="484.00" arrivalLane="-249177425#7_0" arrivalPos="328.03" arrivalSpeed="12.30" duration="433.00" routeLength="2086.39" waitSteps="301" timeLoss="314.34" rerouteNo="0" devices="tripinfo_17" vType="DEFAULT_VEHTYPE" speedFactor="1.00" vaporized=""/>
    <tripinfo id="139" depart="417.00" departLane="43335375#1_0" departPos="5.10" departSpeed="0.00" departDelay="0.00" arrival="484.00" arrivalLane="-43341566#2_0" arrivalPos="321.48" arrivalSpeed="21.76" duration="67.00" routeLength="1263.03" waitSteps="0" timeLoss="10.65" rerouteNo="0" devices="tripinfo_139" vType="DEFAULT_VEHTYPE" speedFactor="1.00" vaporized=""/>
    <tripinfo id="108" depart="324.00" departLane="191608853_0" departPos="5.10" departSpeed="0.00" departDelay="0.00" arrival="486.00" arrivalLane="237973104_0" arrivalPos="49.13" arrivalSpeed="12.87" duration="162.00" routeLength="1994.09" waitSteps="40" timeLoss="57.32" rerouteNo="0" devices="tripinfo_108" vType="DEFAULT_VEHTYPE" speedFactor="1.00" vaporized=""/>
    <tripinfo id="95" depart="285.00" departLane="-211482602#2_0" departPos="5.10" departSpeed="0.00" departDelay="0.00" arrival="490.00" arrivalLane="-43246587#6_0" arrivalPos="324.65" arrivalSpeed="22.12" duration="205.00" routeLength="3302.75" waitSteps="18" timeLoss="67.79" rerouteNo="0" devices="tripinfo_95" vType="DEFAULT_VEHTYPE" speedFactor="1.00" vaporized=""/>
    <tripinfo id="146" depart="438.00" departLane="--165920_0" departPos="5.10" departSpeed="0.00" departDelay="0.00" arrival="498.00" arrivalLane="187714560_0" arrivalPos="46.92" arrivalSpeed="26.61" duration="60.00" routeLength="1177.77" waitSteps="2" timeLoss="17.39" rerouteNo="0" devices="tripinfo_146" vType="DEFAULT_VEHTYPE" speedFactor="1.00" vaporized=""/>
    <tripinfo id="135" depart="405.00" departLane="15092433#0_0" departPos="5.10" departSpeed="0.00" departDelay="0.00" arrival="510.00" arrivalLane="43246588#3_1" arrivalPos="5.20" arrivalSpeed="11.91" duration="105.00" routeLength="1773.23" waitSteps="0" timeLoss="21.34" rerouteNo="0" devices="tripinfo_135" vType="DEFAULT_VEHTYPE" speedFactor="1.00" vaporized=""/>