<?xml version="1.0" encoding="UTF-8"?>

<!-- generated on Tue  7 Aug 16:39:00 2018 by SUMO gui Version 0.32.0
<?xml version="1.0" encoding="UTF-8"?>

<configuration xmlns:xsi="http://www.w3.org/2001/XMLSchema-instance" xsi:noNamespaceSchemaLocation="http://sumo.dlr.de/xsd/sumoConfiguration.xsd">

    <input>
        <net-file value="/Users/acabrejasegea/sumo-0.32/Data/Networks/cross/cross.net.xml"/>
        <route-files value="/Users/acabrejasegea/sumo-0.32/Data/Networks/cross/cross.rou.xml"/>
        <additional-files value="/Users/acabrejasegea/sumo-0.32/Data/Networks/cross/cross.det.xml"/>
    </input>

    <output>
        <tripinfo-output value="BasicQ_doublecross_out/tripinfo.xml"/>
    </output>

    <time>
        <begin value="0"/>
    </time>

    <report>
        <verbose value="true"/>
        <no-step-log value="true"/>
    </report>

    <traci_server>
        <remote-port value="63224"/>
    </traci_server>

</configuration>
-->

<tripinfos xmlns:xsi="http://www.w3.org/2001/XMLSchema-instance" xsi:noNamespaceSchemaLocation="http://sumo.dlr.de/xsd/tripinfo_file.xsd">
</tripinfos>
