<?xml version="1.0" encoding="UTF-8"?>

<!-- generated on Thu 26 Jul 15:14:25 2018 by SUMO gui Version 0.32.0
<?xml version="1.0" encoding="UTF-8"?>

<configuration xmlns:xsi="http://www.w3.org/2001/XMLSchema-instance" xsi:noNamespaceSchemaLocation="http://sumo.dlr.de/xsd/sumoConfiguration.xsd">

    <input>
        <net-file value="/Users/acabrejasegea/sumo-0.32/Data/Networks/kingsx/kingsx.net.xml"/>
        <route-files value="/Users/acabrejasegea/sumo-0.32/Data/Networks/kingsx/kingsx.passenger.trips.xml"/>
        <additional-files value="/Users/acabrejasegea/sumo-0.32/Data/Networks/kingsx/kingsx.poly.xml"/>
    </input>

    <output>
        <tripinfo-output value="BasicQ_kingsx_out/tripinfo.xml"/>
    </output>

    <processing>
        <ignore-route-errors value="true"/>
    </processing>

    <routing>
        <device.rerouting.adaptation-steps value="180"/>
    </routing>

    <report>
        <verbose value="true"/>
        <duration-log.statistics value="true"/>
        <no-step-log value="true"/>
    </report>

    <traci_server>
        <remote-port value="51698"/>
    </traci_server>

    <gui_only>
        <gui-settings-file value="/Users/acabrejasegea/sumo-0.32/Data/Networks/kingsx/kingsx.view.xml"/>
    </gui_only>

</configuration>
-->

<tripinfos xmlns:xsi="http://www.w3.org/2001/XMLSchema-instance" xsi:noNamespaceSchemaLocation="http://sumo.dlr.de/xsd/tripinfo_file.xsd">
    <tripinfo id="veh5" depart="5.00" departLane="-4253997_0" departPos="5.10" departSpeed="0.00" departDelay="-0.40" arrival="85.00" arrivalLane="237413929#4_0" arrivalPos="35.03" arrivalSpeed="7.04" duration="80.00" routeLength="497.23" waitSteps="4" timeLoss="15.90" rerouteNo="1" devices="tripinfo_veh5 routing_veh5" vType="passenger" speedFactor="0.83" vaporized=""/>
    <tripinfo id="veh8" depart="8.00" departLane="-425548224_0" departPos="5.10" departSpeed="0.00" departDelay="-0.63" arrival="109.00" arrivalLane="2850776#2_0" arrivalPos="20.70" arrivalSpeed="7.63" duration="101.00" routeLength="744.76" waitSteps="0" timeLoss="11.31" rerouteNo="1" devices="tripinfo_veh8 routing_veh8" vType="passenger" speedFactor="0.94" vaporized=""/>
    <tripinfo id="veh21" depart="22.00" departLane="-25913823#1_0" departPos="5.10" departSpeed="0.00" departDelay="-0.66" arrival="111.00" arrivalLane="-4257240#1_0" arrivalPos="22.78" arrivalSpeed="7.97" duration="89.00" routeLength="782.99" waitSteps="0" timeLoss="13.54" rerouteNo="1" devices="tripinfo_veh21 routing_veh21" vType="passenger" speedFactor="1.02" vaporized=""/>
    <tripinfo id="veh13" depart="14.00" departLane="474189878_0" departPos="5.10" departSpeed="0.00" departDelay="-0.03" arrival="118.00" arrivalLane="2876904#6_1" arrivalPos="93.66" arrivalSpeed="9.93" duration="104.00" routeLength="894.58" waitSteps="0" timeLoss="14.52" rerouteNo="1" devices="tripinfo_veh13 routing_veh13" vType="passenger" speedFactor="1.12" vaporized=""/>
    <tripinfo id="veh31" depart="33.00" departLane="4680890#0_0" departPos="0.20" departSpeed="0.00" departDelay="-0.46" arrival="126.00" arrivalLane="4255963#2_0" arrivalPos="29.90" arrivalSpeed="9.50" duration="93.00" routeLength="862.02" waitSteps="0" timeLoss="13.35" rerouteNo="1" devices="tripinfo_veh31 routing_veh31" vType="passenger" speedFactor="1.18" vaporized=""/>
    <tripinfo id="veh28" depart="30.00" departLane="-32261850_0" departPos="5.10" departSpeed="0.00" departDelay="-0.22" arrival="134.00" arrivalLane="139291982#3_0" arrivalPos="12.83" arrivalSpeed="11.95" duration="104.00" routeLength="768.72" waitSteps="0" timeLoss="11.16" rerouteNo="1" devices="tripinfo_veh28 routing_veh28" vType="passenger" speedFactor="0.95" vaporized=""/>
    <tripinfo id="veh34" depart="36.00" departLane="-4253730#2_0" departPos="5.10" departSpeed="0.00" departDelay="-0.69" arrival="137.00" arrivalLane="74863209#0_0" arrivalPos="0.20" arrivalSpeed="8.15" duration="101.00" routeLength="909.61" waitSteps="0" timeLoss="14.16" rerouteNo="1" devices="tripinfo_veh34 routing_veh34" vType="passenger" speedFactor="1.17" vaporized=""/>
    <tripinfo id="veh9" depart="9.00" departLane="4257254#1_0" departPos="5.10" departSpeed="0.00" departDelay="-0.71" arrival="142.00" arrivalLane="-129373076_0" arrivalPos="55.83" arrivalSpeed="10.80" duration="133.00" routeLength="947.63" waitSteps="6" timeLoss="33.27" rerouteNo="1" devices="tripinfo_veh9 routing_veh9" vType="passenger" speedFactor="0.86" vaporized=""/>
    <tripinfo id="veh37" depart="39.00" departLane="589640599#4_0" departPos="5.10" departSpeed="0.00" departDelay="-0.93" arrival="150.00" arrivalLane="207530502_0" arrivalPos="0.20" arrivalSpeed="11.90" duration="111.00" routeLength="845.30" waitSteps="25" timeLoss="45.77" rerouteNo="1" devices="tripinfo_veh37 routing_veh37" vType="passenger" speedFactor="0.97" vaporized=""/>
    <tripinfo id="veh57" depart="61.00" departLane="291536189_0" departPos="0.20" departSpeed="0.00" departDelay="-0.52" arrival="152.00" arrivalLane="-311804827#1_1" arrivalPos="56.73" arrivalSpeed="8.09" duration="91.00" routeLength="739.96" waitSteps="0" timeLoss="16.03" rerouteNo="1" devices="tripinfo_veh57 routing_veh57" vType="passenger" speedFactor="1.00" vaporized=""/>
    <tripinfo id="veh4" depart="4.00" departLane="17691744#3_0" departPos="5.10" departSpeed="0.00" departDelay="-0.32" arrival="153.00" arrivalLane="-161652141#6_1" arrivalPos="9.45" arrivalSpeed="8.57" duration="149.00" routeLength="1150.37" waitSteps="16" timeLoss="34.81" rerouteNo="1" devices="tripinfo_veh4 routing_veh4" vType="passenger" speedFactor="1.03" vaporized=""/>
    <tripinfo id="veh32" depart="34.00" departLane="-4256839_0" departPos="5.10" departSpeed="0.00" departDelay="-0.54" arrival="156.00" arrivalLane="-166364166#3_0" arrivalPos="2.33" arrivalSpeed="9.96" duration="122.00" routeLength="1112.31" waitSteps="0" timeLoss="13.48" rerouteNo="1" devices="tripinfo_veh32 routing_veh32" vType="passenger" speedFactor="1.15" vaporized=""/>
    <tripinfo id="veh6" depart="6.00" departLane="-161652141#10_0" departPos="5.10" departSpeed="0.00" departDelay="-0.48" arrival="161.00" arrivalLane="-4059308#1_0" arrivalPos="105.69" arrivalSpeed="9.03" duration="155.00" routeLength="788.88" waitSteps="55" timeLoss="72.46" rerouteNo="1" devices="tripinfo_veh6 routing_veh6" vType="passenger" speedFactor="1.05" vaporized=""/>
    <tripinfo id="veh20" depart="21.00" departLane="-4256607_0" departPos="5.10" departSpeed="0.00" departDelay="-0.59" arrival="164.00" arrivalLane="-534027371#0_0" arrivalPos="86.95" arrivalSpeed="9.72" duration="143.00" routeLength="727.03" waitSteps="51" timeLoss="72.23" rerouteNo="1" devices="tripinfo_veh20 routing_veh20" vType="passenger" speedFactor="1.16" vaporized=""/>
    <tripinfo id="veh55" depart="59.00" departLane="587007396_2" departPos="5.10" departSpeed="0.00" departDelay="-0.36" arrival="167.00" arrivalLane="507160892_0" arrivalPos="3.67" arrivalSpeed="8.64" duration="108.00" routeLength="1080.24" waitSteps="1" timeLoss="16.73" rerouteNo="1" devices="tripinfo_veh55 routing_veh55" vType="passenger" speedFactor="1.02" vaporized=""/>
    <tripinfo id="veh75" depart="80.00" departLane="-26997928#2_0" departPos="5.10" departSpeed="0.00" departDelay="-0.94" arrival="170.00" arrivalLane="-4256272#0_0" arrivalPos="44.48" arrivalSpeed="12.33" duration="90.00" routeLength="863.06" waitSteps="0" timeLoss="21.22" rerouteNo="1" devices="tripinfo_veh75 routing_veh75" vType="passenger" speedFactor="0.94" vaporized=""/>
    <tripinfo id="veh11" depart="11.00" departLane="-8256233#4_0" departPos="5.10" departSpeed="0.00" departDelay="-0.87" arrival="177.00" arrivalLane="-3127741_0" arrivalPos="1.22" arrivalSpeed="8.53" duration="166.00" routeLength="1156.19" waitSteps="19" timeLoss="42.81" rerouteNo="1" devices="tripinfo_veh11 routing_veh11" vType="passenger" speedFactor="1.03" vaporized=""/>
    <tripinfo id="veh82" depart="88.00" departLane="-4253991_0" departPos="5.10" departSpeed="0.00" departDelay="-0.50" arrival="177.00" arrivalLane="-2876904#4_1" arrivalPos="0.15" arrivalSpeed="8.59" duration="89.00" routeLength="757.43" waitSteps="0" timeLoss="10.77" rerouteNo="1" devices="tripinfo_veh82 routing_veh82" vType="passenger" speedFactor="1.09" vaporized=""/>
    <tripinfo id="veh63" depart="67.00" departLane="-589640603#2_0" departPos="5.10" departSpeed="0.00" departDelay="-0.99" arrival="188.00" arrivalLane="-207529550#2_1" arrivalPos="28.38" arrivalSpeed="14.09" duration="121.00" routeLength="659.35" waitSteps="48" timeLoss="62.84" rerouteNo="1" devices="tripinfo_veh63 routing_veh63" vType="passenger" speedFactor="1.08" vaporized=""/>
    <tripinfo id="veh61" depart="65.00" departLane="-152822405#0_0" departPos="5.10" departSpeed="0.00" departDelay="-0.83" arrival="191.00" arrivalLane="61904421#3_1" arrivalPos="0.52" arrivalSpeed="13.08" duration="126.00" routeLength="995.36" waitSteps="12" timeLoss="35.89" rerouteNo="1" devices="tripinfo_veh61 routing_veh61" vType="passenger" speedFactor="1.02" vaporized=""/>
    <tripinfo id="veh1" depart="1.00" departLane="-49932201#1_0" departPos="5.10" departSpeed="0.00" departDelay="-0.08" arrival="196.00" arrivalLane="-4256185_0" arrivalPos="40.81" arrivalSpeed="8.10" duration="195.00" routeLength="1472.52" waitSteps="3" timeLoss="32.89" rerouteNo="1" devices="tripinfo_veh1 routing_veh1" vType="passenger" speedFactor="0.94" vaporized=""/>
    <tripinfo id="veh112" depart="120.00" departLane="286754715#4_0" departPos="5.10" departSpeed="0.00" departDelay="-0.88" arrival="196.00" arrivalLane="33281860_0" arrivalPos="36.46" arrivalSpeed="8.68" duration="76.00" routeLength="605.31" waitSteps="0" timeLoss="12.48" rerouteNo="1" devices="tripinfo_veh112 routing_veh112" vType="passenger" speedFactor="1.03" vaporized=""/>
    <tripinfo id="veh54" depart="58.00" departLane="234575099#4_0" departPos="5.10" departSpeed="0.00" departDelay="-0.28" arrival="198.00" arrivalLane="-36775925_0" arrivalPos="40.66" arrivalSpeed="9.76" duration="140.00" routeLength="1382.20" waitSteps="1" timeLoss="30.39" rerouteNo="1" devices="tripinfo_veh54 routing_veh54" vType="passenger" speedFactor="1.17" vaporized=""/>
    <tripinfo id="veh85" depart="91.00" departLane="4257251#5_0" departPos="5.10" departSpeed="0.00" departDelay="-0.74" arrival="205.00" arrivalLane="-3996989#0_0" arrivalPos="100.10" arrivalSpeed="14.03" duration="114.00" routeLength="1110.07" waitSteps="0" timeLoss="15.71" rerouteNo="1" devices="tripinfo_veh85 routing_veh85" vType="passenger" speedFactor="1.02" vaporized=""/>
    <tripinfo id="veh130" depart="144.00" departLane="-49932196#1_0" departPos="5.10" departSpeed="0.00" departDelay="3.70" arrival="209.00" arrivalLane="292801791#0_0" arrivalPos="51.53" arrivalSpeed="15.26" duration="65.00" routeLength="547.49" waitSteps="4" timeLoss="22.19" rerouteNo="1" devices="tripinfo_veh130 routing_veh130" vType="passenger" speedFactor="1.15" vaporized=""/>
    <tripinfo id="veh56" depart="60.00" departLane="-547168304_0" departPos="5.10" departSpeed="0.00" departDelay="-0.44" arrival="215.00" arrivalLane="311804826#2_2" arrivalPos="0.20" arrivalSpeed="12.11" duration="155.00" routeLength="1678.56" waitSteps="0" timeLoss="27.85" rerouteNo="1" devices="tripinfo_veh56 routing_veh56" vType="passenger" speedFactor="1.10" vaporized=""/>
    <tripinfo id="veh60" depart="64.00" departLane="-100266647#1_0" departPos="5.10" departSpeed="0.00" departDelay="-0.76" arrival="215.00" arrivalLane="-8096701#3_0" arrivalPos="83.04" arrivalSpeed="10.17" duration="151.00" routeLength="1360.07" waitSteps="0" timeLoss="19.94" rerouteNo="1" devices="tripinfo_veh60 routing_veh60" vType="passenger" speedFactor="1.14" vaporized=""/>
    <tripinfo id="veh110" depart="118.00" departLane="-3128255#0_0" departPos="5.10" departSpeed="0.00" departDelay="-0.72" arrival="216.00" arrivalLane="8096707#0_0" arrivalPos="40.48" arrivalSpeed="9.57" duration="98.00" routeLength="782.42" waitSteps="1" timeLoss="18.65" rerouteNo="1" devices="tripinfo_veh110 routing_veh110" vType="passenger" speedFactor="1.07" vaporized=""/>
    <tripinfo id="veh67" depart="72.00" departLane="4253965#0_0" departPos="5.10" departSpeed="0.00" departDelay="-0.31" arrival="217.00" arrivalLane="-286754711#0_1" arrivalPos="59.34" arrivalSpeed="8.34" duration="145.00" routeLength="1090.75" waitSteps="0" timeLoss="14.21" rerouteNo="1" devices="tripinfo_veh67 routing_veh67" vType="passenger" speedFactor="0.94" vaporized=""/>
    <tripinfo id="veh14" depart="15.00" departLane="4257251#4_0" departPos="5.10" departSpeed="0.00" departDelay="-0.11" arrival="220.00" arrivalLane="405404510#1_0" arrivalPos="44.37" arrivalSpeed="7.77" duration="205.00" routeLength="1295.53" waitSteps="48" timeLoss="70.97" rerouteNo="1" devices="tripinfo_veh14 routing_veh14" vType="passenger" speedFactor="0.99" vaporized=""/>
    <tripinfo id="veh10" depart="10.00" departLane="4257251#1_0" departPos="5.10" departSpeed="0.00" departDelay="-0.79" arrival="222.00" arrivalLane="3754142_0" arrivalPos="8.26" arrivalSpeed="9.06" duration="212.00" routeLength="2390.60" waitSteps="0" timeLoss="31.30" rerouteNo="1" devices="tripinfo_veh10 routing_veh10" vType="passenger" speedFactor="1.09" vaporized=""/>
    <tripinfo id="veh27" depart="29.00" departLane="-32263811#4_0" departPos="5.10" departSpeed="0.00" departDelay="-0.14" arrival="223.00" arrivalLane="405404510#0_0" arrivalPos="74.85" arrivalSpeed="7.84" duration="194.00" routeLength="1588.18" waitSteps="0" timeLoss="26.47" rerouteNo="1" devices="tripinfo_veh27 routing_veh27" vType="passenger" speedFactor="0.92" vaporized=""/>
    <tripinfo id="veh79" depart="85.00" departLane="-4256839_0" departPos="5.10" departSpeed="0.00" departDelay="-0.26" arrival="223.00" arrivalLane="562623746#0_0" arrivalPos="38.91" arrivalSpeed="9.12" duration="138.00" routeLength="1233.04" waitSteps="0" timeLoss="18.42" rerouteNo="1" devices="tripinfo_veh79 routing_veh79" vType="passenger" speedFactor="1.03" vaporized=""/>
    <tripinfo id="veh100" depart="109.00" departLane="139291982#2_1" departPos="4.92" departSpeed="0.00" departDelay="1.07" arrival="235.00" arrivalLane="8407161#2_0" arrivalPos="102.06" arrivalSpeed="8.71" duration="126.00" routeLength="694.83" waitSteps="42" timeLoss="63.17" rerouteNo="1" devices="tripinfo_veh100 routing_veh100" vType="passenger" speedFactor="1.06" vaporized=""/>
    <tripinfo id="veh26" depart="28.00" departLane="3127740#0_0" departPos="0.20" departSpeed="0.00" departDelay="-0.06" arrival="237.00" arrivalLane="300534159_0" arrivalPos="51.65" arrivalSpeed="7.29" duration="209.00" routeLength="1422.26" waitSteps="2" timeLoss="25.91" rerouteNo="1" devices="tripinfo_veh26 routing_veh26" vType="passenger" speedFactor="0.87" vaporized=""/>
    <tripinfo id="veh103" depart="111.00" departLane="8096701#6_0" departPos="5.10" departSpeed="0.00" departDelay="-0.16" arrival="238.00" arrivalLane="95129805#1_0" arrivalPos="74.53" arrivalSpeed="9.59" duration="127.00" routeLength="991.85" waitSteps="1" timeLoss="35.75" rerouteNo="1" devices="tripinfo_veh103 routing_veh103" vType="passenger" speedFactor="1.12" vaporized=""/>
    <tripinfo id="veh23" depart="24.00" departLane="3088642#1_0" departPos="5.10" departSpeed="0.00" departDelay="-0.82" arrival="239.00" arrivalLane="121934169#0_0" arrivalPos="0.20" arrivalSpeed="11.89" duration="215.00" routeLength="1567.64" waitSteps="8" timeLoss="36.42" rerouteNo="1" devices="tripinfo_veh23 routing_veh23" vType="passenger" speedFactor="0.98" vaporized=""/>
    <tripinfo id="veh113" depart="121.00" departLane="-4257240#2_0" departPos="3.02" departSpeed="0.00" departDelay="-0.96" arrival="246.00" arrivalLane="-26997928#1_0" arrivalPos="20.53" arrivalSpeed="14.58" duration="125.00" routeLength="1165.56" waitSteps="9" timeLoss="41.88" rerouteNo="1" devices="tripinfo_veh113 routing_veh113" vType="passenger" speedFactor="1.06" vaporized=""/>
    <tripinfo id="veh142" depart="153.00" departLane="-3087449#1_0" departPos="0.20" departSpeed="0.00" departDelay="-0.25" arrival="246.00" arrivalLane="-28509865#0_0" arrivalPos="0.20" arrivalSpeed="8.07" duration="93.00" routeLength="745.12" waitSteps="0" timeLoss="10.71" rerouteNo="1" devices="tripinfo_veh142 routing_veh142" vType="passenger" speedFactor="1.02" vaporized=""/>
    <tripinfo id="veh126" depart="135.00" departLane="294662324_0" departPos="5.10" departSpeed="0.00" departDelay="-0.99" arrival="248.00" arrivalLane="87071669#2_0" arrivalPos="3.87" arrivalSpeed="9.77" duration="113.00" routeLength="946.97" waitSteps="11" timeLoss="32.32" rerouteNo="1" devices="tripinfo_veh126 routing_veh126" vType="passenger" speedFactor="1.10" vaporized=""/>
    <tripinfo id="veh70" depart="75.00" departLane="17896746_0" departPos="5.10" departSpeed="0.00" departDelay="-0.55" arrival="251.00" arrivalLane="-4253965#2_0" arrivalPos="58.44" arrivalSpeed="7.14" duration="176.00" routeLength="1269.65" waitSteps="1" timeLoss="23.38" rerouteNo="1" devices="tripinfo_veh70 routing_veh70" vType="passenger" speedFactor="0.91" vaporized=""/>
    <tripinfo id="veh0" depart="0.00" departLane="3097621#3_0" departPos="5.10" departSpeed="0.00" departDelay="0.00" arrival="251.00" arrivalLane="-15693515#1_0" arrivalPos="78.90" arrivalSpeed="8.91" duration="251.00" routeLength="2342.67" waitSteps="0" timeLoss="41.61" rerouteNo="1" devices="tripinfo_veh0 routing_veh0" vType="passenger" speedFactor="1.06" vaporized=""/>
    <tripinfo id="veh41" depart="44.00" departLane="161652141#8_1" departPos="5.10" departSpeed="0.00" departDelay="-0.25" arrival="258.00" arrivalLane="-4255962#0_0" arrivalPos="103.03" arrivalSpeed="7.43" duration="214.00" routeLength="1424.13" waitSteps="21" timeLoss="51.63" rerouteNo="1" devices="tripinfo_veh41 routing_veh41" vType="passenger" speedFactor="0.90" vaporized=""/>
    <tripinfo id="veh115" depart="124.00" departLane="286754715#3_0" departPos="5.10" departSpeed="0.00" departDelay="-0.11" arrival="258.00" arrivalLane="304095757#0_0" arrivalPos="18.13" arrivalSpeed="8.28" duration="134.00" routeLength="1012.75" waitSteps="0" timeLoss="14.66" rerouteNo="1" devices="tripinfo_veh115 routing_veh115" vType="passenger" speedFactor="0.93" vaporized=""/>
    <tripinfo id="veh168" depart="181.00" departLane="8169022#0_0" departPos="5.10" departSpeed="0.00" departDelay="-0.32" arrival="260.00" arrivalLane="-49932184#0_0" arrivalPos="2.29" arrivalSpeed="9.47" duration="79.00" routeLength="657.44" waitSteps="0" timeLoss="9.87" rerouteNo="1" devices="tripinfo_veh168 routing_veh168" vType="passenger" speedFactor="1.08" vaporized=""/>
    <tripinfo id="veh148" depart="159.00" departLane="166364279#6_0" departPos="2.80" departSpeed="0.00" departDelay="-0.73" arrival="268.00" arrivalLane="30575232#0_0" arrivalPos="17.33" arrivalSpeed="7.86" duration="109.00" routeLength="815.22" waitSteps="0" timeLoss="11.63" rerouteNo="1" devices="tripinfo_veh148 routing_veh148" vType="passenger" speedFactor="0.94" vaporized=""/>
    <tripinfo id="veh123" depart="132.00" departLane="527107413_1" departPos="4.04" departSpeed="0.00" departDelay="-0.75" arrival="269.00" arrivalLane="527688915#1_0" arrivalPos="10.55" arrivalSpeed="8.30" duration="137.00" routeLength="896.97" waitSteps="30" timeLoss="52.69" rerouteNo="1" devices="tripinfo_veh123 routing_veh123" vType="passenger" speedFactor="0.99" vaporized=""/>
    <tripinfo id="veh136" depart="146.00" departLane="3097584#2_0" departPos="5.10" departSpeed="0.00" departDelay="-0.78" arrival="271.00" arrivalLane="-4638453#0_0" arrivalPos="154.60" arrivalSpeed="8.72" duration="125.00" routeLength="1069.49" waitSteps="0" timeLoss="12.20" rerouteNo="1" devices="tripinfo_veh136 routing_veh136" vType="passenger" speedFactor="1.07" vaporized=""/>
    <tripinfo id="veh48" depart="51.00" departLane="8256233#4_0" departPos="5.10" departSpeed="0.00" departDelay="-0.80" arrival="273.00" arrivalLane="49932206_0" arrivalPos="6.47" arrivalSpeed="9.27" duration="222.00" routeLength="1903.48" waitSteps="0" timeLoss="34.72" rerouteNo="1" devices="tripinfo_veh48 routing_veh48" vType="passenger" speedFactor="1.09" vaporized=""/>
    <tripinfo id="veh146" depart="157.00" departLane="-4257255#0_0" departPos="5.10" departSpeed="0.00" departDelay="-0.57" arrival="275.00" arrivalLane="-26785892_0" arrivalPos="7.87" arrivalSpeed="9.43" duration="118.00" routeLength="651.11" waitSteps="41" timeLoss="55.43" rerouteNo="1" devices="tripinfo_veh146 routing_veh146" vType="passenger" speedFactor="1.16" vaporized=""/>
    <tripinfo id="veh74" depart="79.00" departLane="197476980#1_1" departPos="5.10" departSpeed="0.00" departDelay="-0.87" arrival="276.00" arrivalLane="25803169#1_0" arrivalPos="46.07" arrivalSpeed="7.99" duration="197.00" routeLength="1594.03" waitSteps="10" timeLoss="33.29" rerouteNo="1" devices="tripinfo_veh74 routing_veh74" vType="passenger" speedFactor="0.97" vaporized=""/>
    <tripinfo id="veh7" depart="7.00" departLane="3128255#1_0" departPos="5.10" departSpeed="0.00" departDelay="-0.55" arrival="277.00" arrivalLane="26785612#7_0" arrivalPos="83.46" arrivalSpeed="6.76" duration="270.00" routeLength="2115.89" waitSteps="32" timeLoss="62.13" rerouteNo="1" devices="tripinfo_veh7 routing_veh7" vType="passenger" speedFactor="0.89" vaporized=""/>
    <tripinfo id="veh2" depart="2.00" departLane="4059307#2_0" departPos="5.10" departSpeed="0.00" departDelay="-0.16" arrival="278.00" arrivalLane="33779263_0" arrivalPos="102.33" arrivalSpeed="8.98" duration="276.00" routeLength="2087.09" waitSteps="58" timeLoss="89.99" rerouteNo="1" devices="tripinfo_veh2 routing_veh2" vType="passenger" speedFactor="1.01" vaporized=""/>
    <tripinfo id="veh117" depart="126.00" departLane="3284233#3_0" departPos="5.10" departSpeed="0.00" departDelay="-0.27" arrival="278.00" arrivalLane="-561132265_0" arrivalPos="0.20" arrivalSpeed="8.55" duration="152.00" routeLength="1492.67" waitSteps="0" timeLoss="24.89" rerouteNo="1" devices="tripinfo_veh117 routing_veh117" vType="passenger" speedFactor="1.10" vaporized=""/>
    <tripinfo id="veh119" depart="128.00" departLane="-24417542#5_0" departPos="5.10" departSpeed="0.00" departDelay="-0.43" arrival="279.00" arrivalLane="207529550#2_1" arrivalPos="28.41" arrivalSpeed="14.10" duration="151.00" routeLength="473.79" waitSteps="81" timeLoss="108.37" rerouteNo="1" devices="tripinfo_veh119 routing_veh119" vType="passenger" speedFactor="1.10" vaporized=""/>
    <tripinfo id="veh92" depart="99.00" departLane="17691744#3_0" departPos="5.10" departSpeed="0.00" departDelay="-0.29" arrival="280.00" arrivalLane="-500005090#0_0" arrivalPos="40.04" arrivalSpeed="8.75" duration="181.00" routeLength="1404.90" waitSteps="8" timeLoss="46.51" rerouteNo="1" devices="tripinfo_veh92 routing_veh92" vType="passenger" speedFactor="1.01" vaporized=""/>
    <tripinfo id="veh134" depart="144.00" departLane="17926243_0" departPos="5.10" departSpeed="0.00" departDelay="-0.62" arrival="281.00" arrivalLane="-49932207_0" arrivalPos="84.74" arrivalSpeed="7.75" duration="137.00" routeLength="1030.71" waitSteps="1" timeLoss="21.86" rerouteNo="1" devices="tripinfo_veh134 routing_veh134" vType="passenger" speedFactor="1.01" vaporized=""/>
    <tripinfo id="veh93" depart="100.00" departLane="-4257255#1_0" departPos="5.10" departSpeed="0.00" departDelay="-0.37" arrival="283.00" arrivalLane="605078470#3_0" arrivalPos="0.17" arrivalSpeed="8.83" duration="183.00" routeLength="1326.61" waitSteps="26" timeLoss="60.65" rerouteNo="1" devices="tripinfo_veh93 routing_veh93" vType="passenger" speedFactor="1.02" vaporized=""/>
    <tripinfo id="veh193" depart="208.00" departLane="330341#1_0" departPos="5.10" departSpeed="0.00" departDelay="-0.30" arrival="285.00" arrivalLane="-4256212_0" arrivalPos="45.88" arrivalSpeed="8.69" duration="77.00" routeLength="830.21" waitSteps="0" timeLoss="9.71" rerouteNo="1" devices="tripinfo_veh193 routing_veh193" vType="passenger" speedFactor="1.08" vaporized=""/>
    <tripinfo id="veh72" depart="77.00" departLane="-4059308#3_0" departPos="5.10" departSpeed="0.00" departDelay="-0.71" arrival="285.00" arrivalLane="-72058125#0_0" arrivalPos="13.32" arrivalSpeed="8.61" duration="208.00" routeLength="1932.26" waitSteps="27" timeLoss="57.75" rerouteNo="1" devices="tripinfo_veh72 routing_veh72" vType="passenger" speedFactor="1.02" vaporized=""/>
    <tripinfo id="veh64" depart="69.00" departLane="513773776#1_1" departPos="5.10" departSpeed="0.00" departDelay="-0.07" arrival="286.00" arrivalLane="7744558#0_0" arrivalPos="0.77" arrivalSpeed="9.42" duration="217.00" routeLength="1976.24" waitSteps="13" timeLoss="48.49" rerouteNo="1" devices="tripinfo_veh64 routing_veh64" vType="passenger" speedFactor="1.12" vaporized=""/>
    <tripinfo id="veh51" depart="55.00" departLane="-474189878_0" departPos="5.10" departSpeed="0.00" departDelay="-0.04" arrival="287.00" arrivalLane="311804828#1_0" arrivalPos="7.84" arrivalSpeed="6.77" duration="232.00" routeLength="1540.81" waitSteps="28" timeLoss="52.21" rerouteNo="1" devices="tripinfo_veh51 routing_veh51" vType="passenger" speedFactor="0.88" vaporized=""/>
    <tripinfo id="veh68" depart="73.00" departLane="224188123#1_1" departPos="5.10" departSpeed="0.00" departDelay="-0.39" arrival="290.00" arrivalLane="26785806#2_0" arrivalPos="119.62" arrivalSpeed="7.39" duration="217.00" routeLength="1490.70" waitSteps="28" timeLoss="55.28" rerouteNo="1" devices="tripinfo_veh68 routing_veh68" vType="passenger" speedFactor="0.88" vaporized=""/>
    <tripinfo id="veh16" depart="17.00" departLane="132318682#8_0" departPos="5.10" departSpeed="0.00" departDelay="-0.27" arrival="293.00" arrivalLane="26785807_0" arrivalPos="32.84" arrivalSpeed="6.90" duration="276.00" routeLength="1954.00" waitSteps="17" timeLoss="49.90" rerouteNo="1" devices="tripinfo_veh16 routing_veh16" vType="passenger" speedFactor="0.88" vaporized=""/>
    <tripinfo id="veh118" depart="127.00" departLane="-72058130#1_0" departPos="5.10" departSpeed="0.00" departDelay="-0.35" arrival="295.00" arrivalLane="41588157#2_0" arrivalPos="33.64" arrivalSpeed="8.64" duration="168.00" routeLength="1793.53" waitSteps="1" timeLoss="25.53" rerouteNo="1" devices="tripinfo_veh118 routing_veh118" vType="passenger" speedFactor="1.01" vaporized=""/>
    <tripinfo id="veh226" depart="243.00" departLane="49932190#1_0" departPos="5.10" departSpeed="0.00" departDelay="-0.91" arrival="296.00" arrivalLane="78335461_1" arrivalPos="0.20" arrivalSpeed="11.79" duration="53.00" routeLength="504.44" waitSteps="0" timeLoss="7.86" rerouteNo="1" devices="tripinfo_veh226 routing_veh226" vType="passenger" speedFactor="1.09" vaporized=""/>
    <tripinfo id="veh47" depart="50.00" departLane="9344819#0_0" departPos="5.10" departSpeed="0.00" departDelay="-0.73" arrival="297.00" arrivalLane="26709645#0_0" arrivalPos="167.35" arrivalSpeed="9.09" duration="247.00" routeLength="1735.48" waitSteps="47" timeLoss="79.90" rerouteNo="1" devices="tripinfo_veh47 routing_veh47" vType="passenger" speedFactor="1.04" vaporized=""/>
    <tripinfo id="veh42" depart="45.00" departLane="95129805#1_0" departPos="5.10" departSpeed="0.00" departDelay="-0.33" arrival="299.00" arrivalLane="24417542#13_0" arrivalPos="23.27" arrivalSpeed="7.02" duration="254.00" routeLength="1708.52" waitSteps="60" timeLoss="100.28" rerouteNo="1" devices="tripinfo_veh42 routing_veh42" vType="passenger" speedFactor="1.03" vaporized=""/>
    <tripinfo id="veh46" depart="49.00" departLane="-228016376_0" departPos="5.10" departSpeed="0.00" departDelay="-0.65" arrival="301.00" arrivalLane="14200525#1_0" arrivalPos="32.99" arrivalSpeed="8.94" duration="252.00" routeLength="2243.30" waitSteps="43" timeLoss="81.96" rerouteNo="1" devices="tripinfo_veh46 routing_veh46" vType="passenger" speedFactor="1.04" vaporized=""/>
    <tripinfo id="veh35" depart="37.00" departLane="5090246#1_0" departPos="5.10" departSpeed="0.00" departDelay="-0.77" arrival="302.00" arrivalLane="-74167879_0" arrivalPos="50.54" arrivalSpeed="8.55" duration="265.00" routeLength="1675.41" waitSteps="48" timeLoss="76.47" rerouteNo="1" devices="tripinfo_veh35 routing_veh35" vType="passenger" speedFactor="0.99" vaporized=""/>
    <tripinfo id="veh151" depart="162.00" departLane="4257254#3_0" departPos="5.10" departSpeed="0.00" departDelay="-0.97" arrival="303.00" arrivalLane="52918815#0_2" arrivalPos="0.20" arrivalSpeed="14.30" duration="141.00" routeLength="923.36" waitSteps="29" timeLoss="63.81" rerouteNo="1" devices="tripinfo_veh151 routing_veh151" vType="passenger" speedFactor="1.14" vaporized=""/>
    <tripinfo id="veh109" depart="117.00" departLane="235993022#0_0" departPos="5.10" departSpeed="0.00" departDelay="-0.64" arrival="306.00" arrivalLane="49932195#2_0" arrivalPos="22.89" arrivalSpeed="7.87" duration="189.00" routeLength="1004.23" waitSteps="64" timeLoss="91.60" rerouteNo="1" devices="tripinfo_veh109 routing_veh109" vType="passenger" speedFactor="0.89" vaporized=""/>
    <tripinfo id="veh17" depart="18.00" departLane="449113135#0_1" departPos="5.10" departSpeed="0.00" departDelay="-0.35" arrival="308.00" arrivalLane="303559648#2_0" arrivalPos="38.61" arrivalSpeed="7.63" duration="290.00" routeLength="1956.36" waitSteps="75" timeLoss="108.20" rerouteNo="1" devices="tripinfo_veh17 routing_veh17" vType="passenger" speedFactor="0.94" vaporized=""/>
    <tripinfo id="veh120" depart="129.00" departLane="95208554_0" departPos="5.10" departSpeed="0.00" departDelay="-0.51" arrival="313.00" arrivalLane="9616291_0" arrivalPos="45.87" arrivalSpeed="8.05" duration="184.00" routeLength="932.08" waitSteps="60" timeLoss="87.88" rerouteNo="1" devices="tripinfo_veh120 routing_veh120" vType="passenger" speedFactor="0.92" vaporized=""/>