<?xml version="1.0" encoding="UTF-8"?>

<!-- generated on Mon  6 Aug 16:57:47 2018 by SUMO gui Version 0.32.0
<?xml version="1.0" encoding="UTF-8"?>

<configuration xmlns:xsi="http://www.w3.org/2001/XMLSchema-instance" xsi:noNamespaceSchemaLocation="http://sumo.dlr.de/xsd/sumoConfiguration.xsd">

    <input>
        <net-file value="/Users/acabrejasegea/sumo-0.32/Data/Networks/kingsx/kingsx.net.xml"/>
        <route-files value="/Users/acabrejasegea/sumo-0.32/Data/Networks/kingsx/kingsx.passenger.trips.xml"/>
        <additional-files value="/Users/acabrejasegea/sumo-0.32/Data/Networks/kingsx/kingsx.poly.xml"/>
    </input>

    <output>
        <tripinfo-output value="BasicQ_kingsx_out/tripinfo.xml"/>
    </output>

    <processing>
        <ignore-route-errors value="true"/>
    </processing>

    <routing>
        <device.rerouting.adaptation-steps value="180"/>
    </routing>

    <report>
        <verbose value="true"/>
        <duration-log.statistics value="true"/>
        <no-step-log value="true"/>
    </report>

    <traci_server>
        <remote-port value="50563"/>
    </traci_server>

    <gui_only>
        <gui-settings-file value="/Users/acabrejasegea/sumo-0.32/Data/Networks/kingsx/kingsx.view.xml"/>
    </gui_only>

</configuration>
-->

<tripinfos xmlns:xsi="http://www.w3.org/2001/XMLSchema-instance" xsi:noNamespaceSchemaLocation="http://sumo.dlr.de/xsd/tripinfo_file.xsd">
</tripinfos>
